# vtk DataFile Version 3.0
vtk output
ASCII
DATASET UNSTRUCTURED_GRID
POINTS 2365 float
145.046 175.554 206.023 141.853 160.194 206.485 161.344 168.557 205.048 
195.979 80.3323 121.467 187.43 86.0102 128.377 180.541 87.1136 118.172 
27.9488 231.345 4.49798 31.127 234.66 17.1361 36.9689 242.245 -0.0947693 
61.771 251.625 202.215 43.3124 244.476 192.329 47.9856 248.203 204.242 
277.691 111.645 203.187 271.966 100.924 201.971 277.028 110.419 189.408 
264.465 113.568 203.923 260.696 228.103 193.058 250.115 232.205 204.673 
265.572 221.401 204.597 251.681 221.408 197.39 254.723 212.254 204.626 
264.362 109.889 192.245 113.197 119.643 194.68 104.905 121.998 204.445 
104.071 134.171 204.96 117.263 132.118 204.968 122.266 133.967 192.204 
109.463 140.349 191.201 74.0465 122.225 185.823 89.0086 125.54 197.018 
79.7517 114.773 198.585 67.7255 115.671 193.681 71.1713 125.247 204.684 
78.6686 152.322 205.992 78.4835 144.29 194.271 84.4504 157.434 193.064 
64.8027 152.392 194.17 153.234 201.499 101.847 147.163 192.187 94.6009 
151.083 200.478 83.9067 159.138 188.722 106.08 161.792 189.759 91.7425 
135.575 195.742 89.2111 139.695 199.117 76.7416 167.215 198.961 77.6544 
157.882 184.994 76.87 140.285 184.146 80.4993 125.02 186.843 77.5006 
127.081 199.486 80.0458 167.001 166.185 41.1024 165.4 159.726 23.9149 
165.439 154.014 43.0499 160.925 158.807 10.7425 173.56 166.111 6.83836 
148.854 148.917 20.8887 153.093 150.667 35.2041 158.969 143.275 11.7434 
166.084 172.939 30.1709 164.285 175.626 15.8514 154.806 165.274 38.7651 
155.638 172.338 55.1903 157.647 159.921 51.7355 167.227 178.327 43.7802 
85.2981 210.161 125.074 71.2625 220.753 133.207 74.2239 204.405 118.696 
102.669 204.787 126.973 85.8992 213.467 137.388 90.3954 205.565 114.306 
92.7329 198.454 123.9 64.9399 199.109 108.801 67.651 193.881 93.4267 
80.6185 203.46 106.272 80.3977 203.47 89.9731 91.1026 197.796 100.394 
57.2807 196.627 119.648 61.4025 209.528 121.017 66.2958 240.441 91.9815 
68.8082 240.187 111.017 79.7586 246.196 96.1879 79.483 245.773 108.426 
81.7743 249.087 120 58.7934 232.949 110.863 54.8776 232.978 122.421 
69.8977 243.322 123.91 138.564 114.033 193.562 153.459 120.442 193.093 
151.945 106.092 193.496 130.82 104.703 193.403 142.04 103.086 203.747 
129.518 110.456 204.032 137.812 128.841 190.879 127.073 124.131 204.416 
160.447 88.9538 188.419 146.693 92.1341 191.639 165.289 100.839 191.711 
166.567 113.728 190.995 159.426 135.202 190.021 173.724 124.07 187.27 
147.143 115.434 204.084 166.365 114.079 203.995 159.828 125.795 204.222 
158.351 104.536 203.834 146.582 128.58 204.661 14.6689 207.427 25.3795 
28.7502 214.495 35.7227 25.7712 223.555 27.7701 16.5187 212.607 14.2609 
22.9754 197.09 40.0242 10.9943 201.042 13.4394 7.0056 189.791 20.7975 
12.9981 188.899 33.7859 37.212 203.851 42.6044 46.4336 215.979 42.8093 
35.9525 230.549 28.995 13.6194 200.515 -0.329841 22.4491 223.393 15.8073 
18.1215 215.713 2.35414 107.989 252.887 71.8609 95.7756 252.111 71.4482 
108.396 252.808 86.2787 119.719 252.81 75.375 116.028 253.4 60.1065 
103.011 253.339 60.6824 91.9534 251.082 88.4779 93.1865 252.74 52.1454 
78.3016 248.544 79.2337 83.3574 251.637 67.6813 128.207 251.654 88.5553 
117.461 252.753 96.2955 104.745 251.261 99.8548 235.28 246.779 0.44148 
249.973 238.195 -0.0460403 232.121 232.379 -0.0909075 246.167 244.065 10.0235 
222.139 251.784 4.45995 221.89 239.958 -0.0978859 231.613 249.259 12.1865 
247.398 226.202 -0.0230228 259.175 238.177 14.3113 261.674 234.506 -0.0690907 
248.042 240.19 21.5473 231.163 246.202 24.3337 233.413 211.954 -0.249264 
220.011 221.153 -0.198673 186.588 35.2509 131.934 176.549 32.5098 115.522 
188.463 35.0167 114.044 165.15 30.6763 119.623 173.133 32.0475 103.755 
173.801 32.2507 129.645 182.501 63.1964 119.365 182.07 73.4008 109.698 
165.681 63.7304 117.904 179.104 63.1451 132.995 193.718 64.9381 127.707 
196.133 65.8182 112.294 186.734 37.9489 147.331 172.204 34.3323 142.669 
201.051 40.6747 141.285 203.956 40.0216 123.003 194.602 37.2337 102.597 
171.748 184.963 18.3633 170.192 196.024 12.6189 173.113 187.002 4.84547 
162.82 211.209 -0.0603197 177.357 197.267 -0.245001 174.438 193.643 26.5641 
154.647 199.335 0.386034 158.017 200.544 20.358 157.634 190.774 35.3079 
167.022 184.943 30.3754 176.133 217.71 -0.0790895 188.489 209.471 -0.121152 
197.47 195.605 -0.241313 205.704 213.424 1.1916 190.334 225.83 -0.108194 
258.559 93.8739 58.2665 266.275 93.9211 76.5984 255.6 84.726 68.6612 
260 94.4826 44.176 267.387 104.745 60.4927 247.466 84.4709 52.9618 
275.646 106.78 79.4422 258.784 82.852 85.6454 269.083 93.8894 94.3083 
245.563 74.3373 70.6101 210.961 79.7849 203.554 192.86 89.4298 203.693 
191.032 76.4518 203.53 198.349 109.128 203.919 180.76 94.3014 203.73 
204.544 95.4174 203.751 192.418 105.318 180.606 183.78 93.1967 180.797 
178.348 108.89 187.048 194.968 87.3843 173.081 181.461 73.1769 171.288 
171.966 84.6191 183.652 200.845 98.3535 174.623 177.473 73.061 203.408 
201.17 68.1689 203.455 185.755 58.7042 203.369 136.89 197.49 54.0194 
138.858 183.946 51.8545 127.797 188.168 46.6699 129.306 174.975 45.508 
131.161 179.107 29.4133 142.007 189.453 40.5836 130.083 191.394 26.2924 
132.829 199.568 41.1411 124.809 199.713 50.9589 135.651 175.675 62.9874 
133.247 159.341 70.4367 125.815 165.517 57.6223 143.264 159.73 58.1703 
133.123 147.868 59.1884 135.297 163.149 46.93 148.353 173.489 70.91 
130.773 172.353 79.129 136.26 190.235 67.1225 150.427 188.256 64.467 
142.583 174.354 43.9969 94.4177 70.1689 186.412 83.3747 82.8498 175.29 
81.0326 72.1618 191.671 99.3706 82.747 190.738 96.647 71.2157 203.547 
90.0537 91.7356 184.605 86.9173 74.6635 164.249 71.9203 78.2902 162.173 
77.0886 67.6423 173.232 68.353 85.1575 172.061 75.4061 92.0279 182.576 
71.289 77.726 182.323 100.419 81.897 173.821 92.1183 66.2132 154.015 
75.2482 66.587 152.648 99.1211 71.4622 166.684 186.731 188.154 -0.212553 
206.585 181.46 -0.347206 179.494 177.315 -0.279666 182.504 182.06 13.2025 
193.598 173.527 -0.310218 197.174 185.365 10.961 208.505 199.28 5.63756 
22.9666 116.231 20.777 28.22 103.348 8.17794 29.3442 105.78 20.1447 
35.2325 103.617 30.675 28.9416 114.633 31.9219 38.9999 92.8715 18.7977 
37.4748 105.774 -1.11519 17.8424 117.378 1.27948 31.3635 121.531 -1.0363 
44.9057 116.852 -0.988316 49.9492 101.062 -1.16381 39.1667 89.0952 2.77933 
49.4526 130.317 -0.867738 58.8566 119.58 -0.982904 150.808 206.285 135.102 
139.689 212.814 140.747 129.38 205.072 134.791 148.081 198.743 124.112 
154.959 212.613 121.574 139.057 188.927 130.276 143.426 192.527 145.109 
165.131 204.305 130.273 169.877 203.857 162.321 164.07 213.763 149.004 
157.926 208.479 165.349 160.988 200.272 146.244 174.085 199.002 141.478 
172.009 216.594 162.834 114.708 256.589 149.806 103.48 258.458 161.143 
116.194 259.09 161.576 128.754 254.821 149.646 105.572 255.548 141.905 
119.882 254.561 139.031 85.8581 253.966 159.682 95.1505 254.985 152.156 
114.076 260.724 178.516 98.0219 259.536 172.601 107.107 216.962 151.302 
93.9373 232.836 158.466 95.2549 219.35 144.846 81.7646 227.95 142.823 
102.664 225.491 166.755 74.8844 230.4 170.818 76.5862 226.725 157.922 
92.4868 231.577 174.336 132.885 256.707 162.717 125.679 259.009 173.16 
131.661 92.8674 191.658 119.925 99.8689 190.139 124.218 81.2921 185.119 
111.682 89.9939 185.235 101.596 100.927 191.534 110.493 107.906 198.399 
125.627 112.055 185.296 109.334 95.7724 199.781 119.483 100.455 203.849 
103.971 85.5885 203.992 121.251 82.3834 203.509 137.393 90.5072 203.613 
233.866 90.1905 168.299 236.114 80.3578 179.047 247.076 89.7883 175.666 
234.509 101.734 177.455 223.738 90.7761 182.416 245.494 84.0216 193.514 
233.258 87.0884 190.439 235.059 60.3152 171.363 248.291 68.7063 166.806 
247.282 70.6381 182.089 248.824 67.231 150.571 259.239 78.8782 157.974 
237.043 58.716 156.047 257.55 79.284 175.145 253.98 108.431 168.397 
255.611 98.1634 159.826 244.463 90.7968 158.097 262.29 94.4552 170.913 
254.152 97.0825 186.501 254.057 86.7413 166.06 246.231 106.021 177.866 
167.983 191.399 158.151 157.854 187.649 140.793 165.612 205.887 178.339 
159.555 193.959 176.563 144.026 204.998 167.93 126.52 202.92 164.438 
137.208 205.304 152.417 132.823 194.176 139.234 131.542 190.779 159.161 
155.646 135.654 156.547 165.262 125.439 163.747 155.54 134.232 174.321 
166.548 127.462 176.687 172.369 119.549 153.733 160.056 121.592 148.088 
181.453 122.221 167.63 172.808 148.975 163.507 171.145 158.715 151.877 
164.32 145.861 155.526 174.295 165.257 172.121 165.859 147.56 174.318 
173.139 155.225 180.852 174.958 141.26 181.04 184.644 156.237 176.837 
194.365 148.939 182.559 192.382 135.547 182.556 162.528 151.488 188.593 
168.072 146.124 197.863 83.5476 180.975 46.7085 69.4551 170.14 54.5134 
70.9379 177.059 42.6535 81.1192 178.02 62.3476 76.4156 172.591 30.7904 
89.1136 172.767 36.7678 94.4405 178.509 56.2793 63.7317 160.389 38.6403 
56.698 158.521 57.7835 68.8258 157.493 51.4534 77.7204 166.14 62.829 
65.1299 175.528 65.8402 71.4711 184.107 73.7734 90.0724 171.893 74.276 
85.2431 184.972 77.4117 67.6525 164.34 27.4776 128.262 251.703 39.2987 
119.908 252.818 48.3657 131.89 252.253 55.4571 119.17 250.076 29.8258 
141.658 250.415 35.3986 133.049 252.639 22.6785 147.583 247.301 50.6486 
137.394 249.888 70.9223 151.455 194.943 51.5811 145.855 210.269 54.0838 
152.058 205.675 67.6844 48.4881 234.791 69.5534 36.362 219.389 79.2282 
51.1166 233.395 82.3767 58.0573 240.302 49.4318 58.9277 242.702 68.0431 
47.8634 230.451 49.0859 40.9325 227.979 61.1602 26.256 201.505 77.9736 
33.363 210.526 87.0488 27.0831 206.549 67.122 32.9439 216.934 65.5627 
42.2257 220.303 93.3821 77.5187 191.674 85.3447 91.2543 191.387 88.7076 
65.8584 243.968 79.2464 55.4637 233.206 94.9126 246.989 155.177 -0.449743 
252.102 157.479 18.2955 258.108 146.262 12.7953 259.927 149.507 -0.573745 
266.724 157.167 13.2379 250.599 168.163 10.7484 248.586 140.749 -0.618571 
233.271 124.696 -0.723813 235.601 146.838 -0.549354 230.315 162.307 -0.495777 
[...]
POINT_DATA 2365
FIELD FieldData 1
Errors 1 2365 double
2.60739 2.71603 1.90798 1.51697 1.4695 1.42709 0.290632 0.319555 0.169313 
0 1.54894 1.53754 1.25844 1.37961 1.25081 1.2688 0.280806 0.308164 
0.347827 0.339894 0.420863 1.28078 2.37205 2.81313 3.47671 3.50826 2.63735 
2.65727 2.28108 2.65755 2.38333 2.4413 2.66189 3.07923 2.526 2.50487 
2.64508 0.24493 0.289483 0.224677 0.321337 0.288082 0.281389 0.238568 0.227482 
0.322473 0.334379 0.346413 0.256322 0.579266 0.700169 0.688524 0.756358 0.727537 
0.800248 0.734405 0.909638 0.550449 0.576473 0.577541 0.462763 0.592597 0.457164 
0.601185 0.616896 0.709964 0.521365 0.798377 0.55683 0.615244 0.816024 0.737135 
0.629959 0.551958 0.548312 0.97601 0.832046 0.466069 0.544571 0.321648 0.373273 
0.351886 0.686025 0.748522 0.518576 2.25073 2.09951 2.12733 2.33769 2.44265 
2.58608 2.26602 2.77933 2.06137 2.2148 1.97191 1.89927 2.19781 1.71438 
2.53068 2.0818 2.26306 2.21966 2.87704 0.599628 0.54005 0.461869 0.506032 
0.707039 0.607613 0.743311 0.781328 0.61012 0.474446 0.377793 0.557709 0.417923 
0.429447 0 0 0 0 0 0 0 0 
0.230919 0 0 0 0 0.491655 0.678834 0.499277 0.571132 
0 0.243805 0.347837 0.694544 0.691885 0.790507 0.546913 0.337296 0.64969 
0.428538 2.17396 2.1799 2.1072 2.26162 2.15577 2.24999 1.76108 1.59395 
1.78646 1.82068 1.74303 1.68455 2.21863 2.30274 2.10454 2.03843 2.03733 
0.496211 0.411299 0.529525 0.318975 0.461311 0.3948 0.402767 0.335459 0.365763 
0.439856 0.290148 0.398172 0.562814 0.418022 0.262654 1.43828 1.41887 1.50346 
1.46863 1.35148 1.51781 1.31153 1.50566 1.39766 1.58919 1.8727 1.91517 
2.05638 1.70485 1.98116 1.76801 1.59149 1.75948 1.7428 1.69564 1.91882 
1.95778 1.56276 2.20338 2.07107 2.30778 0.265488 0.366583 0.348076 0.463422 
0.46473 0.346809 0.367303 0.267795 0.259832 0.420093 0.556015 0.533883 0.56972 
0.69505 0.566518 0.417274 0.434607 0.301955 0.311346 0.469946 3.21718 2.64998 
3.67632 2.91862 3.92057 2.52556 2.49119 2.63228 3.03535 2.88058 2.65821 
3.48324 2.45712 2.41593 2.6131 2.47235 0.584317 0.740737 0.662714 0.577543 
0.758743 0.607824 0.552555 1.38257 1.48908 1.47073 1.49905 1.40618 1.5817 
1.45042 1.36351 1.29956 1.32687 1.48005 1.61669 1.17566 1.27337 0.349225 
0.370482 0.434078 0.348998 0.245633 0.498461 0.560382 0.292271 0.458538 0.308845 
0.484833 0.425538 0.359122 0.337649 0 0 0 0 0 
0 0 0 0 0 0.430683 0.445062 0.4758 0.397426 
0.468283 0.700558 0.636328 0.488508 0 0 2.35078 2.35259 2.40274 
2.40595 2.41752 2.4588 2.13493 2.78831 2.62379 3.255 2.87152 2.53456 
1.49807 1.64666 1.49914 1.40473 1.58276 1.62063 1.61542 1.8712 1.72727 
1.74341 1.70926 1.5737 1.84055 1.60519 1.2636 1.35747 1.44372 1.41465 
1.42745 1.502 1.32886 0.562547 0.513395 0.538329 0.742468 0.65599 0.858032 
0.493083 0.55459 1.02916 1.20046 1.34282 1.54544 1.56069 1.25111 1.19029 
1.33911 1.06626 0.821323 1.02931 0.95493 1.33123 1.27088 1.45219 1.08559 
1.16438 1.33495 1.92436 1.9698 0.546366 0.743429 0.640518 0.619193 0.646519 
0.593634 0.523024 0.830082 0.938314 0.854687 0.735996 0.759482 0.681198 0.623992 
0.578377 0.764778 0 0 0 0 0 0 0.0280262 
0.0180528 0.288898 0.18451 0.195017 0.510395 0.745956 0.573614 0.298636 0.39256 
0.414151 0.547551 0.907254 0.872743 0.794399 0.688162 0.793677 0.628375 0.531529 
0.389899 0.620938 1.13933 1.05204 1.18109 1.23517 1.14373 1.00326 1.25772 
1.33839 1.15526 1.01044 1.20208 1.04499 1.01972 1.26071 1.34313 1.35076 
0.952578 0.874658 0.907869 0.838163 0.867289 0.829361 0.802349 0.905594 1.0535 
1.03444 1.1502 1.20637 0.989943 0.773963 0.929891 0.940692 1.47466 1.61389 
1.4621 1.57612 1.572 1.74862 1.68221 1.68997 1.3782 1.45918 1.43793 
1.33232 0.135854 0.17895 0.0837622 0.0716776 0.193013 0.229295 0 0 
0 0 0 0.0200894 0.0183015 0 0 0.414198 0.55274 
0.805245 1.18671 1.28439 0.559118 0 0 0 0.750323 0.691359 
0.841361 0.728543 0.710814 0.86894 0.890987 0.587753 0.631246 0.833649 1.04132 
0.946516 0.838962 0.900948 0.82748 1.07631 0.943215 1.08218 1.04081 0.902992 
0.855387 0.948808 1.16606 1.13226 1.03975 1.16695 0.892976 0.704799 0.658388 
0.754711 0.769143 1.69497 1.75061 1.81028 1.80113 1.60919 1.61854 1.71693 
1.91019 1.86489 1.88097 1.79474 1.64807 1.61258 3.49641 4.16446 4.13627 
4.43734 4.01178 3.84903 3.81735 3.54778 3.48809 3.30116 0.836426 0.713891 
0.695946 0.811836 0.820399 0.889851 0.908749 0.886493 0.724366 0.600918 0.681773 
0.562174 0.604874 0.813306 0.65288 0.929782 0.972092 0.819795 0.730625 0.856784 
0.669544 0.713906 0.602144 0.554427 0.672338 0.782231 0.681435 0.855323 0.653996 
0.746748 0.532178 0.627924 0.53868 1.02607 1.0003 0.843359 0.717941 0.667751 
0.689565 0.72056 0.555 0.538621 0.682016 0.558948 0.52547 0.61303 0.634343 
1.65776 1.50255 1.56065 1.78603 1.65418 1.77419 1.34177 1.27037 1.42938 
1.49517 1.59961 1.15281 1.13406 1.22684 1.03287 1.12781 1.22228 1.17877 
1.03222 1.23961 1.3371 1.3912 1.22267 1.05146 1.09853 1.18433 1.3256 
1.48951 1.06433 0.811237 1.11198 1.54195 1.31174 1.68282 1.03091 0.923243 
1.16115 0.588336 0.734297 0.683096 0.639052 0.776878 1.09586 0.589488 0.83331 
1.00407 1.92458 1.32778 0.864206 0.761605 0.84179 0.979902 0.822341 0.943068 
0.87017 0.937689 0.776414 0.694069 0.789303 0.696623 0.65735 0.730542 1.03724 
0.977529 0.878243 0.800048 1.86332 1.91615 1.86894 1.85973 1.86743 1.81158 
1.78391 1.84659 1.91105 1.93004 1.9508 1.98616 1.95924 1.89817 0.404356 
0.501139 0.532533 0.378542 0.356108 0.398339 0.508006 0.534293 0.689332 0.703218 
0.621949 0.904744 0.812638 0.554271 0.751539 0.599583 0.801519 0.596916 0.562735 
0.90397 0.734433 0.514215 0.809288 0.55532 0.438202 0.633899 0.72047 0.538965 
0.667725 0.543163 1.78387 1.72023 1.77763 1.84776 1.95975 1.96517 0.510606 
0.511982 0.605228 0.398958 0.491233 0.584635 0.419691 0.493568 0.598361 0.422693 
0.354633 0.354382 0.401905 0.286185 0.460119 0.266257 0.347086 0.41348 0.542585 
0.572358 0.522197 0.292653 0.334052 0.250417 0.307199 0.428642 0.195568 0.36526 
0.322113 0.414095 0 0 0 0 0 0 0.336399 
0.201288 0.391361 0.160785 0 0 0.0877719 0 0 0 
0.745034 1.10473 0.96167 1.30481 0.593358 0.544037 0.7359 2.38677 2.42369 
2.29812 2.54921 2.42525 2.31728 2.27743 2.02622 1.86026 1.94459 2.15646 
2.04672 2.09172 2.15617 1.94333 1.85808 1.76002 1.79368 1.85077 2.01319 
0.416487 0.493121 0.551742 0.554591 0.709083 0.591131 0.698091 0.684545 0.426348 
0.536136 0.394979 0.452078 0.70379 0.555593 0.523829 0.710319 1.33163 1.5077 
1.36535 1.13666 1.16064 1.63789 1.44622 1.85918 1.49546 1.44315 1.72383 
1.14547 1.49405 1.23375 1.11622 0.9747 0.971817 1.19121 1.00676 0 
0.0446778 0.0165048 0 0 0 0 0.0853844 0.057064 0 
0.200179 0.770932 0.590633 0.515941 0.693276 0.481873 0.368201 0.348975 0.487141 
0.589823 0.738306 0.670209 0.788995 0.87478 0.916315 0.728697 0.826281 0.716462 
0.678793 0.67767 0.822936 0.826418 0.931151 0.987441 0.932769 0.831441 1.90043 
1.75643 1.88945 2.31585 2.2322 2.12709 2.34089 2.41909 2.41397 0.478506 
0.576284 0.536794 0.502488 0.689268 0.972247 0.970059 1.07785 1.08382 0.882107 
1.14069 1.05848 0.820204 0.937736 0.883128 1.1888 1.17572 0.233872 0.331202 
0.499437 0.318703 0.422818 0.358271 0.310088 0.305082 0.443164 0.499183 0.564213 
0.534297 0.455819 0.419894 0.656456 0.568038 0.769974 0.503178 0.225684 0.292261 
0.156991 0.191129 0.113557 0 0.105538 0 0.972006 1.06684 0.823299 
0.991502 0.776353 0.973957 0.885027 0.987882 0.636874 1.20125 1.14457 1.36167 
1.00616 1.03653 0.880906 0.911077 1.02391 1.25885 1.08158 3.18056 3.04264 
3.40766 2.95678 2.83256 2.78368 3.06314 2.93073 3.26206 1.61459 1.4756 
0.452991 0.631758 0.580436 0.548739 0.493065 0.452421 0.466174 0.578522 0.777588 
0.701836 0.388023 0.320161 0.466893 1.51512 2.29971 2.14287 2.27396 2.06449 
2.22078 2.09519 2.52632 2.47864 2.65092 1.05219 0.984244 0.858725 1.00816 
0.993435 1.21585 1.20071 1.08431 0.977703 1.10353 0.945874 0.958425 0.933491 
1.18351 1.01973 0.947119 0.822463 0.964811 0.712888 0.608194 0.624707 0.697335 
0.634276 0.615777 0.52832 0.449651 0.381302 0.661753 0.423865 0.496023 0.794466 
2.70019 2.74683 2.84206 2.56536 2.72105 2.90002 2.9944 2.29638 2.28524 
2.48025 2.31723 2.97392 0.261894 0.214603 0.251254 0.365889 0.325099 0.274795 
0.387139 0.344344 0.247834 0.365219 0.240584 0.280264 1.59946 1.64247 1.618 
1.32017 1.41632 1.55059 1.49366 1.69952 1.64718 1.00318 0.88379 0.551896 
0.679005 0.53519 0.653455 0.583763 0.848127 0.889096 0.743941 0.5596 1.25247 
1.08635 0 0.138771 0.15694 0.227418 0.248595 2.70873 2.92442 2.4497 
2.23474 2.14981 0.664703 0.612552 0.904061 0.991756 0.865178 1.10741 0.823561 
1.05787 0.866945 0.594554 0.638296 0.530616 0.542255 0.448708 0.615053 0.685791 
0.433407 0.554295 0.390852 0.166318 0.398705 0.304761 0.456772 1.0375 1.09676 
1.15543 1.19961 1.32844 1.0546 1.30133 1.24439 1.03549 1.69724 1.56641 
1.6512 1.66644 1.69986 1.65284 1.48329 1.53012 1.18618 1.44354 1.27493 
1.317 1.38934 1.48598 1.32737 1.25304 1.4526 1.25312 1.43157 1.55413 
1.30904 0.0190004 0 0 0.242575 0.284258 0.21639 0.225937 0.170356 
0.345321 0.243203 0.171045 0.0738886 0.0476033 0.0497443 0.962704 0.923018 0.768922 
0.975429 1.00654 0.878884 0.844551 0.881653 0.610375 0.802715 0.77983 0.71101 
2.5523 2.64192 2.56394 2.53404 2.10716 1.97952 2.18092 0 0.0626817 
0 1.22641 1.52444 1.3649 0.704075 0.657921 0.564267 0.639521 1.69335 
1.40787 1.81708 2.04065 2.04189 1.92791 2.1481 2.30202 1.64015 2.01774 
2.17491 2.30862 2.48752 2.49077 2.3401 1.79379 2.48074 1.88851 2.88761 
3.8705 3.09489 2.52317 2.5625 3.46018 2.95355 3.4183 3.17906 3.41636 
4.00169 2.88054 0.834488 0.801404 0.705664 0.869541 0.611526 0.953089 0.920533 
0.642314 1.09849 1.09207 1.20071 1.04731 0.99552 1.15364 0.996411 1.11421 
1.2437 1.05179 1.08953 1.96269 1.89633 1.98504 0.242898 0.172002 0.0841393 
0.32224 0.0484273 0 0.246538 0.155048 0.223917 0.0746884 0.174527 0.295056 
0.237116 0.12272 0.231131 1.71515 1.48635 1.61593 1.56168 1.94865 1.90897 
1.48994 1.43011 1.29296 1.54819 2.23123 2.12206 2.6258 2.15195 2.50388 
2.33354 2.4926 2.93672 2.622 1.83726 1.87523 1.80415 2.11895 2.25803 
2.54178 2.79327 2.90604 2.25569 1.81548 1.41356 1.5504 0.622921 0.597059 
0.497648 0.713525 0.699432 0.599498 0.602212 0.72921 0.517651 0.477542 0.566993 
0.456213 0.520918 0.605109 0.452557 0.415866 0.353097 1.74589 1.74122 1.5685 
1.42237 1.4607 1.3169 1.43432 1.56897 1.67542 2.08961 2.19935 2.07069 
2.04935 1.94034 2.25983 2.13739 2.00756 1.95477 2.15702 2.2526 2.34229 
1.84285 1.86289 1.97095 1.83999 1.94206 1.73497 1.63418 1.65131 1.3366 
1.17335 2.36687 2.44722 2.50785 2.28734 1.97822 2.05554 2.43514 2.59096 
1.48096 1.69971 1.5676 1.7166 2.00127 1.76981 1.92149 1.56969 1.54753 
1.49861 1.59366 1.42197 1.47815 1.61673 1.51214 1.30599 1.31991 1.79431 
1.54363 0 0.0869949 0 0 0 0 0.112572 0.17546 
0.141836 0.161144 0 0 0.0868885 0.201192 0.266148 0.144224 0.0580055 
0.101568 0.185352 0.125446 0.210182 0.232437 0.26193 0.316353 0.0566138 0.0106655 
2.695 2.63771 2.31196 2.47524 0.71556 0.789221 0.829322 0.801037 0.942481 
0.780748 0.768412 0.61057 0.511679 0.62942 0.464216 0.4189 0.495079 0.403478 
0.485857 0.0161673 0.0234862 0.0408145 0.0633751 0.0212449 0.427739 0.476855 0.412363 
0.553879 0.68021 0.438825 0.603468 0.573483 0.705445 2.03964 2.05942 2.14893 
2.0415 2.12245 1.63381 1.62091 1.68832 1.47298 1.4749 2.11087 1.97514 
1.91596 2.20363 2.22179 2.20037 1.00289 1.11951 1.13698 1.11359 1.83578 
1.91523 1.77125 1.84693 2.04759 1.96573 0.215432 0.345138 0 0.674636 
0.681011 0.55954 0.766088 0.625361 0.79885 0.633247 0.733374 2.68542 2.94124 
2.99121 2.32229 2.25461 3.27845 0.728462 0.722925 0.910225 0.924581 0.672528 
0.849633 0.049615 0.641182 0.922231 1.03472 1.10343 1.14427 1.11807 1.32527 
0.746273 1.9929 0.754899 0.976402 0.87324 0 0 0 0 
0 0 1.11351 1.15592 1.10901 1.15151 1.04672 1.02553 2.32434 
2.19074 1.84437 1.99932 1.90914 2.11629 2.06545 1.67393 1.49727 1.61723 
1.26324 2.0021 3.24928 3.48551 3.24869 3.12115 0.759677 0.894196 0.662061 
0.786527 0.410864 0.305287 0.391931 0.412013 0.441991 0.321901 0.493946 0 
0.0655566 0 0 0 0 0 0.264739 0.340185 0.317218 
0.370173 0.401726 0.434888 0.375973 0.506665 0.345681 1.40896 0.988578 1.41582 
1.70028 1.68391 1.25824 1.62422 1.5375 1.67868 0.531743 0.699557 0.466691 
2.45977 2.3665 2.36767 2.51593 2.26302 2.28008 1.96525 2.23267 2.04093 
1.89933 1.98236 2.01196 2.33885 2.11926 2.2658 2.12895 2.90297 2.09048 
2.57179 0.729927 0.629597 0.615249 0.497597 1.36417 0.568841 2.16002 0.857434 
0 0.570557 0 0 0.8222 0.613123 1.23097 1.21632 0.83754 
1.09653 1.36766 1.2822 1.41144 1.4953 0.905208 4.59635 4.60536 3.88278 
3.99452 3.42332 4.01162 4.00346 3.63328 2.84634 4.79957 4.98275 2.64696 
4.42746 0.942745 0.641281 1.10929 1.31251 1.07184 1.27721 1.46634 1.26756 
2.43153 2.41516 2.62525 1.14517 1.25186 0.930872 0 0 0.975414 
1.02495 0.863845 1.03956 1.07998 0.88178 0.966781 1.17971 0.884672 0.731486 
0.744678 0.783456 0.396006 0.308585 0.2929 0.367659 0 0 0 
0 0 0 0 0 0.0206347 1.12792 1.24218 0.991453 
0.901301 1.32266 0.987557 1.02087 1.26717 2.7704 3.23044 2.66851 0 
0 1.70619 1.70348 1.77988 0.273983 0 0.201463 1.5034 1.7058 
1.5849 1.7045 1.79899 1.81299 1.57288 1.57273 1.49911 1.78462 1.44559 
1.57372 2.77927 2.52366 3.01381 2.79217 2.61944 2.13505 2.99606 3.45842 
1.57361 1.48065 1.57207 1.56108 1.64884 1.38434 2.80473 2.88166 1.7205 
1.70847 1.02337 1.07178 1.00357 1.12005 1.2166 1.17506 1.1079 1.20655 
0.714141 0.726384 1.79544 1.76595 0.995168 0.893773 1.23931 1.75706 0.995893 
1.59394 2.39286 0.44802 0.359225 0.688172 0.603528 0.692619 0.730227 0.449149 
0.43385 0.412494 0.563295 0.464415 0.344954 0.336885 0.405854 0.36054 0.281222 
0.287448 0.208679 0.200826 0.499921 0.497095 0.657671 0.851785 1.01777 1.59224 
1.64516 1.41573 4.56961 0.646927 0.742537 0.873143 0.489726 0.522089 1.91134 
1.78909 1.8835 1.99603 1.97004 1.94257 1.92334 1.95605 1.95863 1.9134 
1.91156 1.26519 1.47022 1.44348 1.0897 0.752876 0.162159 0.128957 0.303474 
0.346015 0.320865 0.236661 0.268428 0.218398 0.0909515 0.204999 0.23302 1.573 
1.77353 1.84146 1.85681 0.555545 0.561018 0.427124 0.608204 0.47348 0.713996 
0.454528 1.26906 1.29226 1.23747 2.12437 2.61226 2.86935 3.16502 3.34194 
3.09043 2.4262 3.34177 3.19297 4.43469 4.17831 2.0278 2.00984 1.81851 
1.74961 1.79288 1.78218 1.7857 1.66452 1.71902 1.5466 1.86207 1.91062 
4.05221 3.65398 4.04026 0.312766 0.38135 0.322653 0.385049 0.511705 0.518254 
0.958212 1.14551 0.855396 1.00472 1.1486 0.882778 1.06583 0.999956 1.81016 
1.80219 1.81696 1.8865 1.87417 1.86372 1.92197 1.90317 2.24971 2.05934 
2.09901 0.518765 0.47184 0.505033 0.577529 0.938983 0.910217 0.0937947 1.93853 
1.62327 0.686045 0.432236 2.2664 1.64383 1.70305 1.32941 1.53553 1.03954 
1.82233 0.884813 1.01782 1.10972 2.29717 1.5488 2.13029 2.10234 1.99582 
1.94414 1.89459 2.00771 1.88158 1.74765 1.88518 0.586425 0.539126 0.673791 
0.609705 0.62891 0.599514 4.24682 3.46683 1.4168 1.51903 1.27329 1.32451 
1.06399 1.087 1.18604 0.952224 0.803618 0.962162 0.0585102 0 0.0958495 
0.083235 0.0709677 0.0294883 0.270216 0.310684 0.33399 0.275061 0.395716 0.188393 
0.249975 0.275556 0 0 0.177234 0.272043 0.707405 2.57813 0.81839 
1.0262 1.21628 1.19467 0.542975 0.916768 0.520351 0.368365 0.321601 1.44143 
1.41796 1.10175 0.653043 1.34272 0 1.12131 1.02421 1.13946 0.927153 
1.1129 0.970193 1.55623 1.43118 1.23247 1.55584 1.16355 1.12122 1.23308 
1.30276 0.687375 5.09967 4.72101 4.81058 5.04822 4.26491 4.28116 4.24413 
3.71528 0 0.468744 1.25673 0.199278 1.31772 1.34907 1.31009 1.68182 
1.5669 0.736925 0.657526 0.852281 0.819318 0.773429 0.533312 0.42182 0.426989 
0.59435 0.493634 0.757446 0.69242 0 0.135871 0 0.774064 1.10162 
1.89664 1.9467 1.88011 1.98673 1.93185 1.84456 2.06057 0 0 
0 0.853146 0.839595 1.75163 1.7352 1.92468 1.57397 1.73254 0.904169 
3.01495 2.68446 3.10865 2.46493 3.48045 3.27468 3.41509 3.12611 3.63891 
4.30378 4.00484 3.82588 5.18699 5.24518 2.15081 1.8021 0.392407 1.34044 
0.706693 2.07804 0.951872 0.937174 1.01531 3.65005 3.06489 4.24541 2.26543 
3.7312 4.51348 2.59883 2.09378 3.26386 2.19389 2.78551 0.982332 1.75998 
2.00599 1.14273 1.17047 1.40831 1.31604 1.25637 1.41595 1.05469 1.11937 
2.3435 2.57211 2.64079 0.788046 0.864037 0.353521 0.457849 0.209662 0.32465 
0.420876 1.29824 1.68393 1.71963 1.20194 1.52178 0.986467 0.78114 1.33431 
1.23829 1.78697 1.79044 1.75468 1.80526 1.83043 2.31266 0.532363 0 
1.61341 2.73223 0.50988 0.889711 2.13414 2.23671 0.230656 1.57591 1.51188 
1.46717 1.2489 1.24797 1.12667 1.2316 1.36108 1.97379 2.03617 0.87129 
0.793282 0.999843 1.00727 0 0 0 0 2.9475 2.69003 
1.32137 1.23428 1.40759 1.40334 1.32808 1.52187 1.42867 1.49631 1.43151 
1.40544 1.57936 1.55855 1.73509 1.25281 0 0 0 1.38284 
1.32291 1.25964 1.59841 1.45697 1.88288 1.35536 1.46716 1.41589 2.06239 
1.05133 0.251557 0.157723 0.197028 0.149231 0.107904 0.339746 0.315504 5.11187 
4.80206 4.79817 4.4349 4.87335 0.300726 1.42 1.2626 1.28967 1.07452 
2.05539 1.84171 2.14473 2.18843 1.53185 4.20081 2.01721 1.96429 1.83308 
1.77875 1.8962 0 0 1.7559 1.56219 0 1.12383 1.69872 
1.64436 1.8456 2.14662 1.25971 1.23411 1.99272 1.96398 1.89958 2.01352 
2.17757 1.69415 1.22051 4.1193 4.70262 0.715361 0.669437 0.876682 4.80994 
0.431775 0.890605 0 0.522366 1.05956 2.88944 2.60446 2.61628 2.69062 
1.97122 0.675426 1.12526 1.15738 0.967992 1.11313 1.00335 1.05468 1.34068 
1.37908 1.91567 2.54919 2.16072 0.755561 3.41119 2.87673 0.405733 4.1379 
1.64424 1.02176 0.672941 0.998652 0.848471 0.740752 3.47883 3.63764 3.24333 
3.74097 2.80064 2.6927 2.74602 3.1663 3.13207 3.08539 3.37161 3.1508 
1.5953 2.68135 2.78429 2.40981 2.22279 3.34265 3.21278 3.28061 2.58031 
2.30271 2.40943 1.96678 2.37543 2.04312 2.35812 2.18442 2.52619 2.56913 
3.04139 3.00076 3.24262 3.17135 3.04142 2.9826 1.56345 1.58978 1.61948 
1.90081 2.06185 1.86947 1.30531 1.684 2.44791 3.03326 2.54344 2.64696 
2.63339 2.5704 2.51211 2.7679 3.78396 3.4777 3.9284 3.19035 3.26124 
3.65882 3.06732 2.52191 3.03817 2.52025 2.21582 2.1946 2.06429 3.41277 
1.65038 2.94881 0.561947 0.822859 1.07911 1.0171 0.855318 0.866878 1.00329 
1.0396 0.962104 0.763084 0.755536 0.98716 1.18596 0.83955 1.28693 1.19316 
0.608376 1.43097 1.35971 1.60197 0.876473 0.940423 0.825561 1.05667 0.952755 
1.15554 0.820645 1.40894 1.28127 1.18281 1.32951 0.744004 0.600641 0.712986 
1.07525 0.436628 0.513219 0.657709 0.602211 0.498849 0.481153 0.628002 1.21061 
1.81726 1.30652 1.4958 1.39319 1.54573 1.3126 1.73205 1.39015 1.303 
1.71552 1.55149 1.8332 1.97679 1.63539 1.98724 1.30829 1.2333 0.635427 
0.764304 0.634572 1.73325 1.68482 1.5805 1.73695 0.68455 1.85752 1.59107 
1.55853 1.88024 1.64556 1.718 1.47108 1.66066 0.335034 1.20036 0.760198 
0.963191 0.142064 1.1065 1.3885 1.4676 1.46486 1.47895 0.172554 1.76878 
0.234192 0.166055 1.62167 1.00864 0.90159 0.87868 0.707165 1.28127 0.960573 
0.384155 1.28012 1.45002 0.811124 0.787746 2.1792 0.955148 1.56279 0.88292 
1.05217 1.19359 1.64728 0.724031 1.64454 0.336301 0.337261 0.153782 2.0898 
0.112367 1.72518 1.22631 1.00592 0.858457 0.180089 1.2986 0.359641 1.38082 
1.14867 1.40473 1.02816 1.20079 0.98102 1.26104 0.825063 1.50667 0.997756 
0.826998 1.71956 1.4742 1.90927 1.26061 1.37594 1.09239 1.89105 1.70995 
0.985662 1.04202 0.12517 0.0940306 1.19197 1.10415 0.229014 1.47981 1.40814 
1.00926 1.04127 1.46379 0.256578 1.26905 1.52785 0.127366 1.42843 0.788609 
0.499308 0.709046 0.194161 0.205148 0.856731 1.55963 0.225298 
