# vtk DataFile Version 3.0
vtk output
ASCII
DATASET UNSTRUCTURED_GRID
POINTS 2365 float
276.586 209.855 8.99397 24.7713 105.572 124.766 128.363 170.587 132.135 
95.807 253.35 -0.0327582 168.144 137.558 204.764 82.8129 186.223 6.87121 
251.517 156.746 18.7777 174.82 253.916 142.803 216.486 250.628 155.15 
166.978 43.065 174.259 107.627 47.4593 58.4173 209.806 248.373 42.4226 
187.837 189.34 158.591 272.756 98.7238 130.185 281.946 191.432 103.879 
213.595 61.0898 49.0261 33.9922 209.21 99.3825 73.6868 247.07 204.76 
81.9985 86.4584 204.715 160.168 129.177 7.21783 43.7403 165.004 188.137 
108.396 252.808 86.2787 58.8544 115.986 47.8487 154.012 94.3581 109.64 
212.284 149.577 90.7873 93.6891 40.2362 138.493 151.195 194.908 51.7008 
155.939 53.6307 0.0728228 219.472 47.6045 121.863 239.935 68.078 196.828 
242.475 143.001 184.083 130.779 200.822 203.453 89.6131 172.225 74.5403 
10.5496 175.228 33.4614 266.537 104.124 61.3459 197.168 195.205 0.0160913 
92.6461 80.2189 -0.0233455 234.609 207.506 204.78 89.3484 112.428 107.594 
78.715 211.729 148.597 243.854 93.7326 0.0450631 164.026 32.2699 89.3352 
196.9 100.212 159.031 160.631 248.933 -0.0408202 124.347 114.251 163.434 
57.953 240.578 49.4838 239.911 238.539 97.4195 178.325 242.402 204.824 
133.535 129.963 63.1986 116.194 259.09 161.576 11.1206 164.801 135.698 
26.8933 221.546 177.206 33.5065 218.605 0.0252206 167.611 250.485 84.04 
288.1 152.805 148.019 58.6332 68.8018 82.9124 15.1337 143.468 81.8482 
247.528 202.449 148.812 284.171 179.502 198.531 44.8597 144.026 0.0400612 
175.065 197.33 103.515 104.396 134.52 7.21977 99.0929 156.818 189.575 
137.353 79.1592 204.869 137.61 179.516 -0.00500037 38.1274 89.1822 4.02045 
283.704 155.803 62.713 45.5644 112.635 174.312 268.578 216.247 60.0697 
50.4722 67.3302 149.071 169.507 142.39 146.351 189.931 77.627 204.823 
192.535 89.8206 -0.0223206 285.958 118.635 15.9716 128.262 251.703 39.2987 
231.961 231.921 0.0310204 272.752 102.776 180.496 209.23 137.209 -0.0501214 
141.926 30.9803 133.467 105.012 47.0467 186.013 76.469 197.869 204.783 
159.3 151.094 99.1801 206.177 167.971 204.829 115.827 65.0111 103.005 
243.736 69.2679 86.0118 68.7444 240.705 111.182 236.031 191.29 89.8631 
221.974 163.302 136.2 131.449 248.007 204.857 168.219 48.764 45.3491 
286.896 135.291 104.647 177.98 63.5801 134.368 150.74 225.161 169.699 
142.944 166.103 175.65 99.9648 198.919 110.19 209.773 118.766 204.804 
63.1401 160.623 39.1765 69.8703 72.601 38.8156 247.681 67.3266 151.847 
209.664 215.427 127.019 135.369 251.5 121.909 135.259 93.0293 -0.0460559 
210.445 50.2211 168.884 115.052 44.9809 14.8024 19.9915 132.121 34.5123 
164.922 153.826 43.4647 133.207 66.3583 158.22 30.5354 102.384 78.6453 
59.31 138.196 86.6997 174.655 198.602 204.796 29.5662 207.788 55.8018 
126.221 221.819 0.00147472 126.246 126.775 204.801 220.77 57.8779 6.60377 
37.8257 200.397 141.342 123.498 164.413 39.6381 279.531 137.373 204.86 
71.4516 127.912 204.744 128.188 127.518 116.009 94.1676 154.332 112.823 
74.4701 251.542 162.59 3.16 150.202 0.352721 112.005 193.185 166.534 
201.765 252.227 108.404 78.5559 73.9748 118.985 288.745 173.809 25.6388 
94.8677 136.544 50.1881 238.273 191.096 0.0380126 39.1057 168.761 105.652 
130.416 172.516 79.315 11.1473 184.005 171.973 10.6109 139.731 172.19 
203.091 43.5985 84.5391 168.942 249.944 43.1642 257.917 161.199 117.023 
138.728 207.188 118.34 86.1079 76.4726 165.779 84.8653 96.5797 71.1779 
247.258 78.9603 37.0177 71.0027 113.807 -0.0268202 57.4996 248.828 10.3906 
199.779 255.046 4.41388 199.035 222.591 177.276 226.973 248.24 196.103 
47.9536 75.4604 187.744 7.94486 162.064 204.748 104.793 228.187 183.428 
68.5241 178.742 129.852 233.587 102.14 178.441 29.8001 179.887 -0.0130045 
257.207 236.825 29.1458 173.09 165.711 7.2255 28.6951 129.435 204.782 
250.288 180.497 180.304 147.944 217.547 82.538 27.191 195.135 204.815 
162.63 211.005 0.0940931 97.7271 128.886 140.723 52.9953 137.619 137.992 
189.168 165.197 117.539 282.035 189.361 141.454 164.326 102.233 192.738 
247.619 234.473 168.125 270.85 215.693 193.109 93.1865 252.74 52.1454 
98.8541 253.408 129.086 126.901 33.3184 86.9413 55.4932 198.065 174.145 
72.745 165.632 164.587 183.909 156.889 177.309 87.1425 45.9963 89.2631 
17.9095 180.138 77.5 262.307 218.751 119.137 67.3062 194.489 93.6689 
241.207 83.4643 119.647 240.726 243.052 61.1634 54.8831 98.249 105.505 
78.7568 221.485 0.0672582 187.808 45.9075 15.1641 50.8816 233.986 141.753 
281.145 150.184 -0.0167946 252.728 154.632 151.991 268.165 93.4547 95.274 
16.9598 117.588 2.30198 216.222 190.707 179.658 163.879 257.304 176.229 
54.3654 169.859 72.0359 187.138 35.2308 115.678 254.574 127.194 0.0192306 
157.526 188.017 140.945 172.291 109.1 135.684 132.067 129.602 28.1741 
48.3384 222.983 204.788 251.614 116.329 204.821 167.313 172.399 72.825 
112.075 214.814 139.317 202.449 182.74 87.9695 110.936 91.9781 186.399 
102.345 262.507 193.08 144.587 63.5314 122.131 171.496 65.8724 100.372 
14.0332 136.979 115.637 50.9641 233.934 82.5129 138.585 46.9142 193.162 
136.488 94.1276 138.816 237.837 238.968 131.371 174.151 193.447 26.7506 
200.065 252.251 74.6023 77.339 153.535 0.0282278 180.364 74.0518 172.608 
14.3549 207.853 25.6635 284.798 188.586 70.4247 216.537 158.386 169.078 
197.935 257.285 182.177 282.473 120.35 153.763 126.743 167.703 204.803 
128.495 255.183 6.16143 107.246 119.294 80.47 120.632 98.0158 102.397 
128.739 145.629 153.869 135.488 48.2324 40.6066 62.9377 67.5836 6.92145 
137.396 249.898 70.9071 159.608 169.338 204.789 154.709 135.432 174.852 
89.042 113.676 27.385 155.119 219.855 30.771 275.065 155.622 177.98 
133.736 147.036 -0.0215438 119.309 36.7867 158.48 209.52 126.779 173.17 
93.4706 161.592 27.211 158.971 194.424 176.577 71.7108 165.688 204.735 
50.7779 102.904 204.823 61.2931 210.304 121.308 168.012 53.7919 204.795 
75.0135 58.0557 190.937 268.56 179.915 -0.0368643 31.1612 92.6862 153.561 
281.281 128.335 46.2353 215.278 168.719 -0.0585211 258.457 161.478 204.78 
49.5144 243.626 180.633 152.363 224.095 204.737 115.237 32.827 116.431 
213.137 78.3782 183.222 34.3003 103.963 31.8026 50.2475 87.5372 58.7911 
35.7869 230.873 29.0998 146.475 179.252 105.71 108.829 166.477 0.0335249 
222.003 219.581 155.87 247.596 190.878 119.494 119.947 145.677 91.7726 
24.3909 128.094 146.558 190.211 225.647 0.0343068 78.2434 248.766 79.267 
170.828 34.9628 144.416 289.784 163.67 92.2029 280.572 195.147 171.938 
144.975 253.403 151.383 22.44 155.742 54.3783 143.013 72.7585 90.3771 
102.506 91.9825 126.754 203.714 209.236 204.794 114.71 62.3969 133.78 
20.1457 189.399 118.567 140.268 91.4635 176.756 267.657 94.1182 19.6017 
98.5584 113.359 204.735 224.644 169.731 71.1198 67.5115 135.101 22.5924 
55.0815 197.003 0.0246649 218.416 183.879 113.95 164.787 250.532 114.308 
261.815 87.7102 204.508 40.1637 124.803 106.095 216.969 107.847 0.0499917 
87.1746 55.4983 20.6496 282.417 125.156 76.3945 48.3017 72.0096 119.194 
280.626 200.407 37.3754 264.139 222.512 89.2523 162.07 83.3882 150.564 
219.304 209.066 14.9691 164.395 100.323 0.0290542 110.183 196.455 0.0350717 
73.4567 50.3503 158.197 287.56 167.386 121.85 151.308 173.959 26.0099 
108.204 105.747 0.0578984 80.5503 59.1266 63.2488 104.297 187.271 204.779 
55.09 169.321 11.8911 50.5149 142.262 58.7019 261.53 233.731 0.00277244 
147.045 37.3786 65.6181 199.727 41.0591 142.886 190.523 217.326 149.463 
224.905 181.724 24.6629 233.963 177.979 204.847 136.821 205.596 152.52 
116.828 175.191 105.369 180.66 122.981 168.405 188.462 195.114 129.685 
109.705 69.1235 204.873 84.6064 195.635 176.698 249.927 232.395 204.831 
82.492 248.231 25.3972 111.426 155.647 64.6534 99.0376 73.1082 80.7395 
186.446 119.211 -0.0753147 226.408 92.469 204.844 223.11 187.458 151.868 
256.469 79.4996 176.321 222.625 144.439 204.776 235.26 164.32 99.6715 
129.535 64.8985 0.0504157 23.8916 124.748 61.9574 110.536 131.847 181.364 
51.7319 96.3556 133.935 258.949 192.45 204.823 192.865 52.9489 191.043 
291.299 145.566 26.0589 58.5262 89.1166 165.288 179.619 87.3569 119.239 
205.318 79.6737 136.286 153.631 128.532 127.814 183.966 133.271 117.633 
164.448 120.678 97.2388 263.567 128.201 172.96 231.099 245.87 24.3444 
18.9858 115.184 182.728 166.168 170.917 161.113 144.173 243.083 96.9567 
152.557 229.691 130.415 87.8254 223.19 204.812 180.648 40.2112 68.6121 
3.15625 177.084 6.87117 195.906 167.295 144.17 230.136 209.696 109.495 
195.162 142.757 204.867 173.803 220.311 187.95 136.677 257.88 179.794 
79.8814 46.7705 115.706 142.799 159.723 58.4998 61.8697 223.607 166.621 
267.118 216.524 161.589 50.4192 138.724 191.142 52.4697 184.975 204.814 
111.959 117.159 41.6492 234.962 146.055 0.0155268 131.394 119.945 -0.0790075 
44.0147 116.877 -0.000990519 167.013 198.983 77.7558 195.042 65.9341 113.579 
130.83 223.28 188.506 235.988 71.1167 60.2381 204.528 236.159 204.809 
267.572 93.0934 155.957 163.853 213.974 149.071 198.902 162.101 71.1676 
179.528 66.3748 -0.0479325 152.886 161.778 138.3 156.336 257.336 201.887 
266.544 176.426 158.992 226.109 52.2206 147.33 224.986 53.3077 96.3593 
145.971 36.1389 159.333 144.168 29.8637 106.939 13.2505 200.763 0.00812735 
73.826 247.987 136.246 150.219 251.064 24.326 143.368 147.034 204.852 
183.451 115.962 204.839 140.505 198.032 27.7191 56.9456 102.511 79.5078 
284.181 122.366 127.5 199.918 252.792 134.723 14.4653 159.863 102.511 
116.747 168.266 173.699 77.6783 153.846 60.0103 83.1086 181.138 46.9916 
141.147 105.147 204.739 110.971 70.4731 171.441 178.081 253.4 18.9115 
15.3421 188.178 146.54 242.521 70.9388 12.6547 154.718 42.9848 23.8245 
49.5112 83.4434 26.728 108.099 252.068 22.8613 90.6321 68.6308 141.394 
225.705 227.607 180.326 212.004 63.9144 204.781 154.656 70.2775 172.356 
79.4705 233.951 182.69 93.8125 232.421 158.583 163.304 79.3125 204.866 
233.838 60.7002 172.738 148.275 148.644 21.3702 135.365 195.919 89.2735 
46.4634 189.182 119.703 172.851 98.4081 168.704 72.3456 106.08 191.139 
138.75 156.13 113.674 25.2832 182.66 53.0784 276.842 111.902 204.088 
[...]
CELL_DATA 10979
SCALARS Materials int
LOOKUP_TABLE default
385 1 1 1 193 1 1 1 1 
385 321 1 1 1 257 1 1 1 
321 1 1 1 1 1 1 1 257 
1 385 1 1 1 1 1 1 1 
1 1 1 1 385 1 385 385 385 
1 385 1 257 1 1 1 65 1 
193 385 1 453 1 193 321 65 1 
1 1 1 1 1 257 1 1 1 
193 1 65 1 1 1 1 1 385 
1 385 1 1 449 1 385 1 1 
1 1 1 1 1 1 1 1 385 
1 1 1 257 1 1 1 65 1 
1 1 1 1 1 1 1 1 257 
385 65 1 1 1 1 1 1 1 
385 1 1 385 193 1 385 1 1 
385 1 385 385 1 1 1 1 385 
385 1 1 97 385 1 1 193 257 
65 1 1 385 1 385 1 65 17 
1 1 1 193 1 385 1 1 1 
1 1 97 1 1 65 1 1 1 
1 1 385 1 1 1 1 65 1 
1 1 1 1 65 1 193 1 1 
1 1 129 257 1 1 1 1 1 
257 385 257 1 257 385 257 1 97 
1 1 1 1 1 65 1 257 17 
257 1 1 1 1 97 1 1 385 
1 1 1 97 1 1 1 1 1 
65 1 385 1 1 385 449 1 1 
1 1 1 1 385 1 1 1 1 
1 65 385 1 1 65 1 321 1 
1 65 257 1 1 453 1 97 1 
1 1 1 33 1 1 1 1 1 
385 1 1 1 1 385 1 193 1 
385 1 1 1 1 65 1 1 385 
1 1 385 1 1 1 1 129 1 
321 193 65 1 1 1 1 1 385 
1 193 1 1 1 1 1 1 385 
1 1 1 1 257 1 1 1 1 
1 1 1 65 33 1 1 1 1 
1 1 1 1 1 1 1 1 1 
1 1 65 1 1 257 1 1 385 
65 1 193 385 385 193 1 1 257 
1 1 1 1 1 97 1 1 1 
385 257 449 1 97 1 449 97 1 
385 257 1 1 385 385 1 1 1 
65 1 449 385 385 1 193 193 385 
1 257 449 1 193 1 385 1 129 
1 1 129 97 1 65 1 385 193 
1 1 1 1 1 129 321 1 1 
385 1 1 65 1 1 65 449 1 
1 1 1 257 257 65 1 1 1 
1 1 1 1 1 193 1 449 1 
385 385 1 1 1 97 1 1 1 
193 1 1 385 385 1 1 321 1 
65 449 385 1 385 1 1 193 1 
257 1 1 193 1 1 385 1 1 
1 1 65 257 1 1 385 1 1 
385 1 1 257 1 1 1 97 1 
1 1 1 385 193 1 1 1 1 
65 1 129 385 257 385 1 1 1 
1 385 1 385 1 193 1 1 385 
1 1 1 1 1 1 1 1 1 
65 1 321 193 1 1 385 193 1 
1 193 1 1 193 1 321 97 1 
1 385 385 1 1 1 1 449 449 
1 1 385 1 1 257 1 1 453 
1 1 1 1 65 1 449 1 385 
385 1 1 1 1 65 1 1 65 
1 129 97 1 385 1 1 1 1 
385 1 385 65 1 321 1 33 1 
1 1 1 1 385 385 385 449 1 
1 1 65 1 1 1 453 1 1 
1 385 1 1 193 1 1 1 1 
1 129 1 1 1 1 97 1 1 
1 1 1 1 385 1 1 1 1 
1 1 1 1 257 385 1 385 385 
1 1 385 193 1 257 257 321 453 
1 1 1 1 1 1 1 1 1 
193 385 257 1 1 1 1 1 1 
193 1 1 1 385 1 385 193 385 
1 453 1 385 193 1 1 257 1 
1 385 193 385 385 1 1 449 1 
1 1 1 1 129 1 1 65 1 
453 1 385 1 1 385 385 1 385 
1 1 321 385 1 1 257 257 1 
1 1 257 1 453 1 1 385 1 
1 1 385 1 1 1 385 385 1 
1 321 1 193 1 1 385 65 257 
1 257 1 1 1 1 1 33 1 
1 1 1 1 385 257 321 1 1 
1 1 1 129 1 385 1 321 1 
1 385 321 1 1 1 1 257 1 
257 385 257 1 257 1 1 193 385 
1 1 65 385 1 1 1 1 193 
1 1 1 1 1 1 1 1 1 
1 65 1 1 385 1 1 449 193 
1 385 1 1 1 1 257 1 1 
385 385 1 385 385 1 1 1 1 
1 321 385 1 1 193 1 257 1 
1 1 1 1 129 1 1 1 385 
129 193 1 1 1 321 449 129 1 
1 1 449 1 1 257 1 1 17 
1 449 193 1 1 1 1 449 1 
1 97 1 257 1 1 193 97 1 
1 1 1 65 1 1 1 257 1 
1 1 193 385 193 1 321 97 1 
1 193 1 1 1 1 1 1 1 
1 321 1 1 1 1 1 1 1 
1 1 1 385 1 1 1 1 1 
385 1 1 1 1 1 385 1 385 
1 1 385 1 1 385 257 1 385 
257 193 1 257 1 385 193 1 1 
385 193 1 1 1 1 1 65 385 
1 1 65 449 1 65 385 193 1 
1 1 193 1 1 97 1 1 1 
1 1 321 1 1 1 385 1 1 
1 1 385 1 385 1 1 129 1 
1 193 1 193 1 385 1 193 385 
1 17 385 1 1 385 1 129 1 
1 1 385 1 257 257 1 453 1 
1 1 385 1 129 385 1 193 1 
33 1 97 1 193 1 385 1 1 
1 321 385 97 1 1 1 1 1 
1 385 1 1 193 65 1 129 385 
97 1 1 1 449 385 1 65 1 
385 1 1 65 449 1 1 1 1 
1 1 1 65 385 1 1 385 385 
17 1 1 17 97 65 1 1 1 
1 257 1 129 1 1 1 385 1 
65 65 1 1 1 385 1 1 1 
1 1 65 385 1 1 1 385 385 
1 1 1 1 257 97 1 1 1 
97 1 257 1 1 1 1 1 449 
65 1 1 257 193 1 257 1 193 
1 1 1 1 257 453 1 1 97 
1 1 1 1 97 1 1 1 1 
1 385 1 1 257 257 385 1 385 
65 17 1 193 449 1 1 65 1 
1 129 1 1 1 321 97 1 257 
1 385 1 1 1 1 1 193 257 
385 1 1 1 1 1 1 65 1 
1 1 1 1 1 193 97 1 1 
321 321 385 1 1 193 1 1 385 
65 453 1 385 1 1 1 1 1 
65 1 1 449 1 129 385 1 1 
1 1 385 453 1 1 1 385 1 
65 1 257 1 1 1 385 449 1 
385 1 385 257 193 1 385 385 1 
1 1 257 1 1 1 1 1 1 
321 65 1 1 1 97 65 1 385 
193 1 1 1 1 257 1 1 1 
1 1 129 257 1 1 1 257 1 
1 65 1 1 65 1 453 385 1 
385 1 1 1 1 1 1 1 193 
33 1 1 1 257 1 97 1 321 
385 1 129 257 1 1 385 385 385 
1 385 1 385 193 1 1 385 385 
65 1 1 1 1 1 257 1 1 
1 1 257 1 1 257 1 97 65 
1 1 257 385 257 1 385 1 1 
1 1 1 385 1 385 1 385 1 
193 385 1 1 1 1 65 1 65 
1 1 385 1 385 1 257 453 1 
1 1 385 385 1 193 453 1 1 
1 1 385 1 1 1 1 1 1 
65 1 1 17 97 1 453 65 1 
33 1 385 1 97 1 1 385 1 
1 1 1 1 1 1 1 385 1 
1 97 257 321 1 1 1 1 65 
257 65 1 1 1 1 1 1 1 
1 385 1 1 129 1 1 1 321 
1 1 1 1 1 385 1 1 1 
1 1 1 1 1 1 1 1 257 
1 65 1 1 1 1 1 385 257 
1 129 1 1 1 1 1 1 1 
1 1 1 1 385 257 1 449 385 
1 1 257 1 1 1 1 1 321 
1 193 1 1 385 1 1 385 193 
1 1 1 193 97 1 257 1 1 
1 1 97 1 33 1 1 1 17 
65 1 1 1 1 1 1 1 1 
453 1 321 1 1 1 1 1 1 
129 1 129 1 129 385 97 1 1 
193 385 1 65 1 385 1 1 1 
1 1 1 1 385 17 385 1 1 
1 1 1 1 1 1 1 257 1 
1 1 1 1 385 385 1 193 385 
1 1 385 193 321 1 1 1 385 
1 1 1 1 65 1 1 321 385 
257 97 1 193 65 1 385 1 1 
1 1 129 1 129 17 385 1 1 
1 1 1 385 453 1 1 1 1 
385 385 1 1 1 1 453 1 1 
1 1 1 385 1 1 193 193 385 
1 1 385 1 385 1 1 385 321 
1 193 1 385 129 385 321 1 1 
1 1 1 1 1 453 1 385 1 
193 97 1 385 1 1 65 1 1 
1 65 193 1 1 1 1 385 1 
1 1 193 1 193 1 1 1 1 
1 193 1 453 449 193 1 257 1 
1 1 1 97 1 65 1 193 1 
449 385 65 449 1 1 321 1 1 
1 1 385 1 1 193 1 1 1 
1 385 1 1 1 1 1 453 1 
1 65 1 1 1 1 1 385 65 
385 385 1 385 1 1 97 1 1 
385 1 1 1 129 1 97 385 1 
1 385 385 1 1 1 1 257 385 
1 1 1 449 1 257 1 321 1 
65 1 1 385 1 97 385 1 385 
33 1 1 1 1 1 385 385 193 
129 1 1 385 1 1 1 1 33 
65 1 129 1 1 1 65 449 1 
1 1 1 1 1 1 385 1 1 
257 1 1 1 385 1 1 257 385 
449 385 1 1 1 1 1 1 1 
1 1 1 193 1 1 1 1 385 
1 385 193 1 1 1 1 1 1 
1 97 1 33 1 1 385 1 1 
1 1 33 1 385 453 33 1 17 
1 1 385 385 1 193 1 1 1 
1 1 1 1 1 257 385 385 1 
1 1 1 97 385 1 1 193 1 
257 1 65 1 257 1 1 385 1 
1 1 1 1 1 1 1 65 65 
1 385 1 1 65 129 385 1 1 
385 193 1 1 321 385 1 1 1 
1 1 1 1 449 1 1 1 193 
1 385 1 65 1 1 1 1 257 
385 193 1 1 1 385 1 321 1 
1 1 1 1 1 1 1 449 385 
1 1 1 33 1 33 1 385 1 
1 257 1 385 385 257 1 1 65 
1 1 449 385 385 257 1 193 1 
1 1 1 385 1 257 1 1 65 
1 1 1 257 1 453 1 1 193 
1 129 1 1 1 385 1 1 97 
65 385 257 65 1 1 65 1 1 
1 1 1 257 385 1 1 1 1 
1 97 97 1 257 1 1 385 1 
385 1 385 1 1 1 1 385 1 
1 193 321 1 1 1 1 385 1 
1 1 65 65 1 1 1 193 1 
1 1 1 1 193 1 193 1 129 
385 65 1 453 385 1 385 97 257 
1 1 1 321 385 1 385 193 1 
1 385 1 1 1 1 1 1 65 
1 385 1 449 193 97 257 65 1 
1 1 1 1 1 65 1 1 1 
1 1 1 1 33 1 1 1 385 
193 1 1 1 385 1 1 193 1 
65 1 1 385 193 97 385 1 385 
1 1 321 1 1 1 97 193 1 
1 385 1 385 1 1 1 1 1 
1 1 1 193 97 1 385 1 1 
1 1 1 1 1 1 1 65 1 
1 257 1 1 1 385 257 1 1 
385 1 449 65 1 1 1 1 97 
1 1 385 193 1 97 385 65 385 
257 1 1 1 1 1 33 1 385 
1 1 65 1 453 1 1 1 1 
385 385 1 385 1 385 1 1 1 
1 1 1 1 1 1 1 453 1 
1 1 257 385 1 385 97 129 1 
1 1 1 1 65 385 1 385 193 
385 1 257 257 1 1 1 1 1 
449 1 385 1 257 385 257 385 385 
1 257 65 65 385 449 385 1 1 
1 1 1 1 385 97 1 257 1 
1 1 1 385 1 193 1 385 1 
1 193 1 1 1 1 193 257 385 
385 257 1 1 1 65 1 1 1 
33 1 1 1 97 1 321 1 1 
1 1 1 1 1 385 1 453 1 
257 1 1 1 1 65 1 1 1 
1 385 1 1 385 1 1 33 1 
1 385 1 1 97 385 1 97 385 
385 1 1 65 385 65 257 65 1 
1 1 129 193 1 129 1 1 1 
193 385 1 65 449 1 385 1 1 
257 1 1 1 1 385 129 385 1 
1 1 385 1 1 1 33 257 1 
1 1 1 385 1 385 385 65 385 
385 1 385 1 1 1 1 65 1 
385 385 129 257 257 1 97 1 1 
1 1 1 1 65 1 385 1 1 
129 193 1 1 257 1 1 193 1 
193 1 453 129 1 65 1 1 1 
385 1 193 1 1 1 321 1 1 
1 1 1 1 385 1 385 1 1 
257 1 1 385 1 1 193 65 321 
1 1 1 1 257 321 1 1 1 
1 1 129 385 385 1 1 1 1 
1 385 1 1 1 1 385 1 385 
1 385 1 193 1 385 65 321 1 
257 257 1 1 1 1 1 385 65 
33 1 385 385 1 1 97 385 1 
449 1 321 1 1 449 65 1 1 
65 1 1 1 1 1 193 1 1 
1 1 193 1 1 1 1 1 1 
1 1 129 1 1 1 1 1 1 
257 1 385 257 257 1 1 1 321 
1 1 321 385 1 65 193 1 1 
1 1 385 385 1 385 453 321 321 
385 385 385 193 1 1 1 193 385 
449 1 129 385 453 1 1 1 1 
1 385 1 1 1 193 1 1 1 
1 1 1 193 321 1 97 1 1 
1 1 1 1 385 65 1 193 1 
1 1 1 33 385 257 1 1 321 
1 1 1 1 193 1 33 1 1 
1 257 17 1 1 1 1 321 1 
385 385 385 1 1 385 1 1 1 
1 1 1 1 1 1 1 1 385 
1 65 257 1 257 1 385 193 65 
1 1 193 1 1 1 1 1 1 
1 65 321 1 1 1 1 1 1 
1 1 1 257 1 1 1 385 1 
97 1 129 385 97 65 1 1 1 
193 97 385 1 1 1 1 1 257 
1 1 1 1 1 1 65 1 1 
385 1 1 1 1 321 385 1 1 
1 1 1 385 1 1 1 1 1 
1 385 1 65 385 97 1 1 385 
97 1 1 1 1 1 1 1 193 
1 1 385 193 1 1 1 449 385 
1 1 1 385 1 65 1 1 1 
385 1 1 1 1 1 385 385 1 
1 1 385 257 1 1 1 1 193 
257 449 1 385 65 1 1 1 1 
1 385 1 1 1 1 1 1 453 
1 1 65 1 1 193 449 65 385 
385 193 1 1 1 453 65 385 1 
385 1 65 1 385 1 1 1 385 
1 65 1 193 321 193 1 1 385 
1 1 193 1 257 385 65 1 1 
385 65 193 1 1 193 321 1 1 
65 129 1 385 1 1 1 1 257 
385 1 385 1 1 1 1 65 1 
385 65 97 193 65 1 1 1 1 
1 1 193 129 1 1 1 1 1 
97 1 65 1 1 1 1 65 65 
1 453 193 1 453 1 257 1 385 
385 1 257 65 65 1 385 453 1 
385 321 33 385 193 1 1 1 1 
1 65 257 257 97 1 65 1 1 
1 1 1 1 1 1 193 1 1 
1 1 385 1 1 385 65 193 321 
449 257 1 1 385 33 1 1 385 
193 1 1 1 1 385 257 385 1 
449 1 1 1 257 1 1 1 321 
385 1 1 1 1 129 33 97 1 
1 1 1 1 33 1 385 385 449 
1 1 1 1 1 1 1 1 1 
257 385 449 193 1 385 449 1 129 
1 1 17 257 193 65 1 1 193 
1 1 65 1 1 257 1 1 257 
257 321 1 1 1 1 321 1 1 
1 1 1 1 449 385 1 453 193 
1 1 1 449 1 1 1 1 385 
1 1 129 1 1 449 257 1 193 
1 1 449 1 1 1 1 1 1 
1 385 385 33 1 1 1 1 1 
1 1 385 1 1 97 1 193 1 
385 1 1 1 1 1 1 385 1 
33 1 1 129 1 1 385 1 385 
1 385 1 1 1 1 193 1 1 
1 385 1 1 1 1 1 1 1 
385 385 97 321 193 1 97 129 1 
65 97 65 1 1 1 1 1 1 
65 193 1 1 193 1 1 1 1 
1 65 1 1 1 1 1 193 1 
1 1 1 1 193 1 1 193 1 
65 1 449 1 1 193 1 257 1 
1 1 1 1 1 65 1 1 385 
1 1 1 65 385 1 1 1 1 
385 1 257 257 65 1 1 65 1 
1 1 1 257 385 1 385 1 385 
1 1 385 1 1 1 1 1 1 
1 385 1 1 193 1 1 449 1 
257 1 1 385 1 1 1 129 1 
1 1 1 1 65 1 1 385 1 
1 1 1 385 1 1 1 385 65 
453 193 33 1 385 1 1 1 97 
1 1 1 257 1 1 321 1 1 
193 1 1 193 1 1 97 1 1 
385 1 1 1 1 1 453 1 65 
129 1 257 1 1 257 1 65 1 
1 1 1 257 1 1 1 321 193 
1 1 1 65 1 1 1 1 321 
385 321 1 65 1 193 65 385 1 
1 1 1 1 257 1 385 1 1 
1 193 385 1 1 1 1 1 1 
33 1 385 1 1 1 1 1 449 
1 1 1 1 1 1 1 1 1 
1 385 65 1 97 129 385 385 385 
1 1 1 1 1 1 1 257 1 
65 385 1 1 385 321 1 1 1 
1 1 451 1 1 1 1 1 65 
1 1 385 385 1 1 1 1 1 
193 97 1 1 1 129 1 65 1 
1 1 1 1 1 1 193 1 257 
1 1 193 385 257 1 1 1 1 
385 1 17 1 1 1 1 1 385 
1 1 193 1 321 385 385 1 1 
1 33 1 1 451 1 1 1 1 
1 1 1 1 1 385 1 1 1 
1 1 1 385 1 1 1 1 1 
1 1 1 1 1 193 1 1 449 
1 1 1 33 385 1 1 129 449 
449 1 1 449 449 1 1 1 1 
1 385 65 385 1 385 193 1 257 
1 1 449 193 1 1 97 65 33 
1 65 1 1 1 385 1 193 193 
1 1 453 193 1 1 1 1 1 
1 1 385 1 385 1 1 1 1 
1 65 385 1 385 1 65 97 193 
1 1 1 65 1 1 257 1 1 
1 1 1 1 1 257 1 193 1 
385 1 1 1 1 1 1 1 1 
129 385 1 1 1 97 1 1 321 
1 1 65 1 1 1 453 1 1 
129 1 1 1 1 1 1 1 33 
1 65 1 257 385 1 1 1 385 
385 1 1 1 321 1 449 1 1 
1 1 449 1 385 385 1 1 1 
1 1 129 1 1 97 1 1 1 
1 1 1 1 65 1 1 1 385 
385 1 1 1 1 1 1 1 65 
1 1 1 1 1 1 1 1 1 
1 1 193 1 385 1 1 1 449 
1 1 1 1 1 1 1 257 1 
449 1 1 1 1 1 385 1 1 
193 1 1 1 321 1 1 1 1 
385 1 385 1 257 1 1 1 1 
1 1 1 1 385 257 1 1 385 
1 1 17 1 449 1 193 1 193 
1 1 1 1 1 1 1 193 97 
65 1 385 385 193 1 1 385 385 
193 385 65 1 33 453 1 385 451 
1 1 1 385 385 129 1 1 97 
1 1 385 1 1 1 1 1 1 
1 1 1 385 1 1 1 1 193 
1 453 453 1 1 1 1 33 1 
193 1 1 1 385 1 385 1 1 
385 1 385 385 1 385 385 1 1 
1 1 193 193 1 385 1 1 33 
1 385 1 1 1 1 1 1 1 
1 1 1 1 1 1 385 1 257 
257 1 97 1 1 1 1 1 1 
1 1 65 1 129 1 257 17 65 
1 1 257 453 453 129 1 1 1 
1 385 1 1 1 1 449 65 1 
1 1 1 193 1 1 1 1 1 
65 1 1 129 193 1 1 1 1 
193 385 1 1 1 1 1 1 1 
385 1 1 65 1 193 385 1 1 
385 97 33 1 193 257 1 193 1 
1 385 385 385 385 1 1 193 1 
1 385 1 1 1 1 193 193 65 
1 257 1 385 193 385 1 97 1 
385 1 1 1 1 1 1 1 1 
385 453 385 1 1 1 1 1 33 
1 1 1 97 1 1 1 1 257 
385 385 1 1 1 385 1 1 1 
1 321 1 1 1 1 1 1 1 
1 1 1 1 257 193 1 257 257 
1 1 257 1 385 385 1 257 1 
1 1 65 1 321 321 385 385 385 
1 1 385 385 385 1 1 1 1 
1 1 65 1 1 1 1 1 385 
385 1 65 1 1 1 385 385 1 
1 1 1 1 1 1 1 1 1 
1 1 1 1 1 1 193 1 65 
1 1 1 1 1 193 193 1 1 
1 257 1 193 1 1 1 1 193 
385 1 1 1 1 1 193 1 1 
1 1 1 193 1 1 1 1 257 
1 1 1 385 1 385 1 97 385 
385 1 1 193 1 1 65 385 449 
1 1 1 193 193 1 1 1 1 
1 1 1 1 385 1 1 1 1 
1 1 1 1 1 1 1 1 1 
1 65 1 1 1 1 385 1 385 
129 1 1 385 385 257 1 193 1 
1 321 321 1 385 385 1 1 1 
1 1 1 1 1 1 1 385 1 
1 65 1 1 1 1 65 65 1 
1 321 1 33 1 1 1 1 1 
1 1 129 1 97 1 1 65 1 
1 1 1 257 1 1 129 129 129 
1 385 385 1 1 1 1 1 1 
1 1 385 257 385 1 1 1 385 
1 1 385 257 1 1 321 385 1 
1 1 1 1 1 193 1 1 1 
385 385 97 1 65 321 321 385 1 
97 1 1 1 1 1 1 385 1 
453 1 1 385 129 1 385 1 385 
385 385 97 385 257 257 1 1 1 
1 1 1 97 1 385 1 1 257 
1 1 193 1 1 1 1 97 1 
1 65 1 1 385 1 65 65 449 
65 1 1 1 1 1 1 385 1 
385 385 193 193 1 1 1 1 1 
65 1 1 385 1 1 1 1 1 
1 1 1 1 1 1 1 1 1 
1 1 1 1 1 385 1 65 1 
1 1 1 1 1 385 1 1 1 
1 385 1 385 385 1 1 129 129 
1 1 1 1 1 97 1 1 1 
1 65 385 385 385 385 385 1 385 
1 1 33 1 1 1 1 385 1 
1 193 193 1 1 1 193 1 129 
129 385 193 1 1 1 97 1 1 
1 1 1 1 1 1 33 1 1 
65 1 193 97 17 385 385 385 1 
1 385 385 385 1 1 1 1 1 
1 1 1 385 1 1 449 1 1 
257 257 193 1 193 1 1 1 1 
1 1 193 257 1 1 1 1 1 
1 385 385 1 1 385 1 1 65 
65 1 449 385 193 1 1 385 193 
257 1 1 449 449 449 1 1 1 
193 1 1 385 385 1 385 1 1 
1 193 1 65 33 1 1 1 1 
1 385 193 1 193 1 385 1 1 
1 385 1 1 1 1 65 193 193 
385 1 1 33 97 1 1 1 1 
1 1 1 385 385 1 1 1 1 
1 17 1 1 33 1 1 385 385 
1 1 1 65 1 385 385 1 257 
1 1 129 129 257 1 1 453 453 
1 257 1 1 1 257 97 97 97 
1 1 1 1 1 385 385 1 1 
385 1 1 385 1 1 1 1 1 
1 385 1 385 129 129 1 1 385 
1 1 1 1 1 1 1 129 385 
1 1 257 65 1 257 257 257 449 
1 1 1 257 1 257 1 385 1 
385 449 193 1 1 1 193 385 385 
385 385 1 1 193 1 1 453 449 
385 193 1 1 1 1 1 1 1 
1 1 1 1 1 193 193 1 1 
1 1 1 1 1 385 1 1 65 
65 1 1 1 1 1 1 1 1 
1 1 257 1 1 1 385 1 1 
449 1 385 1 193 193 453 1 1 
65 1 1 385 385 1 385 1 385 
1 1 385 1 1 1 385 385 33 
1 1 1 1 1 193 1 385 1 
257 1 385 385 193 1 1 1 385 
193 1 1 193 1 385 1 1 1 
193 1 1 1 1 65 65 1 65 
1 1 1 1 1 1 385 1 453 
1 1 321 1 1 1 449 1 1 
1 97 1 385 1 257 385 1 1 
1 65 385 385 385 385 385 385 1 
385 1 1 1 1 1 1 33 1 
385 1 1 65 1 65 1 1 1 
1 385 385 385 1 385 385 1 1 
1 1 65 1 1 1 193 1 1 
65 1 65 193 65 1 1 1 193 
257 1 1 385 385 1 1 1 1 
1 1 1 1 1 193 449 321 257 
1 1 1 1 1 1 1 1 453 
1 1 1 97 449 385 1 1 1 
1 1 1 1 1 1 17 1 449 
1 1 1 1 1 33 193 1 1 
1 1 385 33 1 1 1 1 193 
257 1 1 1 1 1 1 1 1 
65 1 1 193 449 1 1 1 385 
1 385 1 1 129 1 1 1 1 
1 1 65 1 193 1 1 1 1 
1 129 129 129 129 1 1 1 1 
1 1 1 1 1 193 1 1 1 
1 385 1 193 193 193 1 1 65 
385 1 1 1 1 1 1 1 1 
1 1 1 1 1 257 257 1 1 
1 1 1 1 1 1 193 17 1 
385 1 65 1 1 1 1 1 1 
1 449 385 1 1 1 33 1 1 
1 385 1 1 321 449 1 1 1 
1 385 1 449 1 65 1 1 385 
1 1 1 1 449 449 1 1 321 
1 1 1 1 193 193 97 193 1 
1 1 385 1 1 1 1 385 385 
1 449 1 1 1 97 385 385 385 
33 385 1 1 65 1 1 385 1 
1 1 193 321 193 1 1 97 385 
257 129 1 1 1 1 1 1 1 
1 1 1 385 385 257 1 321 193 
1 1 1 1 1 1 1 1 129 
1 1 1 1 1 1 1 1 1 
97 257 17 1 1 129 1 1 1 
1 1 1 385 1 1 1 1 1 
257 1 1 1 1 385 1 1 1 
1 385 1 1 1 193 1 1 1 
385 1 1 1 97 1 193 1 1 
385 1 385 385 1 1 385 385 1 
1 65 1 1 1 1 1 1 1 
1 385 385 453 385 1 1 1 1 
33 1 1 1 385 1 1 1 65 
193 193 1 1 193 193 1 1 1 
1 65 65 65 385 385 65 385 1 
1 33 257 1 1 1 1 1 1 
1 1 65 193 97 1 1 33 1 
1 1 385 385 1 1 1 1 1 
257 385 1 385 385 385 1 385 97 
1 385 1 257 257 1 65 1 65 
1 1 1 1 1 453 257 385 1 
1 1 1 1 1 385 1 129 385 
1 1 1 1 1 193 1 1 1 
1 449 1 1 1 1 1 65 1 
129 1 1 1 65 1 97 1 1 
1 1 1 65 257 193 1 1 385 
385 193 1 1 453 1 193 385 1 
1 1 97 1 1 1 1 193 1 
1 1 1 1 1 1 1 1 1 
1 1 65 1 65 1 1 193 193 
193 1 1 1 129 1 449 1 1 
257 1 385 65 1 1 385 1 1 
1 385 1 385 385 385 321 385 385 
1 1 453 385 129 1 1 1 1 
65 385 1 1 1 1 1 1 1 
1 1 65 1 321 385 1 1 1 
1 1 1 1 1 1 1 1 33 
1 1 1 1 1 1 1 1 449 
1 1 1 1 1 1 385 1 257 
1 1 385 1 1 257 1 1 97 
1 1 1 97 1 385 1 1 1 
385 321 385 1 193 1 1 1 1 
193 1 385 385 1 1 1 97 1 
1 1 193 321 1 1 1 449 385 
449 385 1 257 257 257 257 449 17 
1 385 1 1 1 1 97 1 385 
33 193 65 1 1 1 97 1 385 
1 1 1 1 1 1 1 1 1 
33 1 1 1 449 1 1 193 193 
1 385 1 1 1 1 193 1 1 
257 1 1 1 65 453 65 129 1 
1 257 1 1 1 1 385 385 385 
1 1 385 1 385 385 385 1 1 
1 1 1 1 1 65 193 1 1 
257 1 453 193 257 1 1 1 1 
1 385 1 1 193 449 193 1 1 
193 193 1 1 1 1 1 1 1 
1 1 1 1 193 1 1 1 1 
449 1 1 1 385 321 449 1 1 
1 1 1 97 1 1 257 385 385 
1 1 1 1 1 1 453 453 65 
1 1 1 1 193 193 385 193 1 
1 1 1 1 1 1 1 65 1 
1 385 1 1 1 1 1 1 1 
1 385 1 1 1 1 1 321 1 
385 1 1 321 1 1 1 257 1 
1 1 193 193 1 1 1 385 385 
385 385 1 257 385 1 1 1 1 
1 1 1 65 385 1 321 321 1 
1 321 193 1 193 65 1 1 65 
257 1 257 129 1 193 129 129 65 
1 1 1 65 1 1 1 1 1 
1 1 193 97 97 1 1 1 1 
1 1 1 385 1 97 1 385 1 
1 1 1 1 257 257 257 1 257 
1 65 1 33 33 193 385 449 1 
385 1 1 1 1 449 193 1 1 
1 1 449 65 321 1 1 1 1 
65 65 193 385 385 321 385 257 1 
1 1 1 97 1 193 1 1 65 
1 97 97 97 97 97 1 1 385 
1 1 1 385 1 1 1 1 1 
1 1 1 1 1 1 193 1 1 
193 1 1 385 1 385 385 1 1 
1 1 1 193 1 193 1 385 1 
1 1 453 1 65 65 1 1 1 
1 1 1 1 1 1 97 1 1 
1 1 1 65 1 193 1 1 385 
385 385 97 193 385 257 257 257 257 
257 257 257 385 1 1 257 257 257 
1 1 1 385 1 1 65 1 385 
385 385 385 449 385 385 193 1 1 
1 1 1 1 1 1 1 1 193 
193 1 193 193 193 1 193 1 1 
1 193 385 385 129 1 385 193 385 
1 1 1 1 257 257 1 1 1 
385 1 1 1 1 1 1 1 385 
1 1 1 1 1 1 1 1 1 
1 65 1 1 1 1 1 1 1 
1 1 385 1 1 385 1 1 1 
129 129 1 1 1 1 453 1 65 
1 65 129 1 257 1 1 1 65 
257 257 97 257 257 257 321 321 257 
1 1 1 1 1 1 1 1 385 
385 1 257 321 65 453 33 33 1 
1 1 65 385 385 385 385 385 1 
1 1 65 1 1 1 1 1 1 
1 65 1 385 1 65 1 1 1 
1 1 1 1 65 97 65 65 129 
1 1 1 129 1 1 385 1 1 
1 1 385 129 129 1 1 1 97 
1 1 1 129 1 1 385 1 321 
65 1 1 193 1 1 1 449 1 
1 1 1 1 1 1 1 1 1 
1 1 1 1 1 1 97 1 1 
1 1 193 193 193 193 193 1 1 
1 1 1 1 1 1 1 1 65 
257 97 33 193 1 257 1 1 1 
1 257 257 257 257 257 321 1 1 
1 1 1 1 1 1 1 1 1 
1 1 1 1 1 385 1 1 1 
193 1 1 1 385 257 1 385 385 
65 385 385 385 1 129 129 385 385 
1 1 385 1 129 1 1 1 1 
1 1 1 1 1 1 1 65 1 
1 1 1 385 193 193 1 385 385 
1 1 1 65 385 1 1 1 1 
33 1 1 1 1 1 1 1 129 
1 1 1 1 65 1 1 1 1 
1 1 385 1 1 1 1 1 193 
1 1 1 1 1 1 1 1 129 
129 257 129 1 1 1 385 385 385 
385 385 385 385 385 1 385 385 385 
385 385 385 385 1 1 385 1 1 
385 385 1 1 65 385 1 385 385 
385 385 385 1 1 1 1 1 1 
1 1 1 1 97 321 321 1 321 
1 1 1 257 1 1 193 385 385 
257 1 1 1 1 65 65 65 65 
1 1 1 1 1 1 1 1 1 
193 1 1 385 385 385 385 453 453 
453 1 1 33 1 1 1 1 1 
1 1 1 257 1 1 1 1 1 
1 257 257 1 1 1 1 1 1 
1 1 1 1 1 449 1 1 1 
1 1 1 1 1 1 65 1 321 
1 1 1 385 1 1 1 1 1 
1 257 1 193 1 1 1 1 1 
1 1 1 1 1 1 257 1 65 
1 1 1 1 1 1 1 1 1 
1 1 193 1 1 1 1 1 1 
1 1 385 1 257 1 257 1 1 
321 1 1 1 1 385 1 1 97 
1 1 257 1 1 257 1 385 385 
385 385 385 1 1 1 1 1 1 
65 1 65 65 129 129 257 321 321 
1 1 1 1 1 1 1 1 1 
1 193 1 1 1 1 1 1 1 
1 1 1 65 1 1 1 1 1 
1 193 1 1 1 193 1 1 1 
1 33 385 1 1 33 1 193 451 
385 385 1 385 65 385 385 1 1 
1 1 1 193 1 1 1 1 1 
1 1 1 1 1 1 1 1 1 
1 1 1 385 1 1 1 1 1 
1 1 1 1 1 1 257 1 1 
193 1 193 193 193 385 385 193 1 
1 1 385 1 385 1 1 1 1 
1 385 449 1 1 1 1 65 1 
1 1 385 193 1 193 1 449 1 
1 1 257 1 1 1 17 385 1 
1 385 1 1 1 1 385 385 385 
1 1 1 1 1 385 1 1 1 
385 1 1 1 1 1 1 1 1 
1 1 1 257 1 1 129 1 1 
1 1 1 321 453 1 1 97 385 
1 1 1 129 1 1 257 1 1 
1 1 1 1 1 1 1 1 1 
1 1 1 1 1 1 1 1 1 
1 1 1 65 1 33 1 1 1 
1 193 193 193 1 1 65 1 1 
1 17 1 1 385 193 1 385 1 
257 33 193 385 1 193 193 193 1 
1 1 1 1 1 1 1 1 1 
1 1 1 129 257 129 129 1 257 
1 1 1 1 1 1 1 1 1 
1 385 449 1 1 97 1 1 33 
1 1 1 1 1 1 1 1 1 
1 1 1 1 1 1 1 65 385 
385 193 1 1 385 385 1 1 385 
1 129 1 1 1 1 257 257 1 
257 321 257 257 1 1 1 1 385 
193 193 1 1 1 193 1 257 257 
1 1 1 453 1 449 449 449 1 
1 1 385 1 1 385 1 193 1 
17 1 1 1 1 1 453 1 1 
1 1 1 385 1 1 1 1 257 
1 1 1 1 1 97 385 97 385 
193 1 1 385 385 385 385 385 453 
1 1 1 1 1 385 385 257 1 
97 257 257 1 385 1 1 1 1 
1 1 1 1 385 385 1 129 385 
33 1 1 1 1 1 1 1 1 
1 1 1 193 1 1 1 1 1 
1 1 1 385 1 1 1 257 257 
1 257 1 129 1 257 1 193 1 
1 1 1 1 1 1 193 1 193 
1 1 1 1 1 385 385 385 385 
449 1 257 1 1 1 1 1 1 
257 65 1 1 1 1 257 129 1 
1 1 1 449 1 1 1 1 1 
449 385 65 1 1 1 1 1 1 
1 1 1 1 1 1 1 1 1 
1 1 1 385 65 1 1 1 385 
385 1 1 385 1 1 1 1 1 