# vtk DataFile Version 3.0
vtk output
ASCII
DATASET POLYDATA
POINTS 51 float
117.747 118.205 111.15 132.379 115.321 112.427 123.896 106.693 118.15 
108.843 115.246 124.012 102.218 113.146 111.797 108.973 125.515 116.501 
128.188 127.518 116.009 122.963 132.932 106.009 125.515 118.455 133.644 
141.848 124.476 120.266 143.882 118.6 106.421 141.447 109.618 122.333 
119.068 122.829 123.566 216.608 161.084 155.713 208.466 165.757 141.62 
209.639 151.091 149.591 225.521 153.623 148.586 221.974 163.302 136.2 
202.998 161.278 152.542 197.602 162.758 163.734 216.537 158.386 169.078 
155.068 109.619 101.584 159.425 114.244 115.324 152.186 103.945 118.044 
166.675 111.691 105.545 164.448 120.678 97.2388 157.612 114.028 130.492 
151.672 129.151 113.087 153.631 128.532 127.814 162.777 134.843 111.219 
154.341 130.774 100.862 93.8172 124.887 124.508 93.2049 107.759 123.841 
163.931 130.483 65.8944 164.198 118.425 71.5976 174.02 123.948 61.1357 
153.481 124.232 61.5497 158.788 107.055 62.7725 169.863 112 58.0127 
166.417 116.015 85.4941 154.833 113.529 88.6768 162.099 105.707 80.4335 
163.588 113.681 46.7181 183.966 133.271 117.633 171.355 134.509 121.201 
169.305 123.712 128.794 177.057 117.566 110.519 172.291 109.1 135.684 
181.031 110.364 153.287 171.636 120.217 154.503 177.161 125.602 143.098 

POLYGONS 78 312
3 0 1 2 
3 2 3 0 
3 4 0 3 
3 5 0 4 
3 1 0 6 
3 7 0 5 
3 7 6 0 
3 8 3 2 
3 1 8 2 
3 9 1 6 
3 1 9 8 
3 10 11 1 
3 11 9 1 
3 9 10 1 
3 3 8 12 
3 12 5 3 
3 12 8 6 
3 6 5 12 
3 13 14 15 
3 16 13 15 
3 13 17 14 
3 13 16 17 
3 13 18 19 
3 20 13 19 
3 13 20 18 
3 14 16 15 
3 17 16 14 
3 21 22 23 
3 24 22 21 
3 22 24 25 
3 22 26 11 
3 27 28 22 
3 28 26 22 
3 23 22 11 
3 25 29 22 
3 29 27 22 
3 26 9 11 
3 10 23 11 
3 8 9 6 
3 9 28 27 
3 26 28 9 
3 10 9 27 
3 10 21 23 
3 10 27 30 
3 10 30 21 
3 29 30 27 
3 30 29 25 
3 21 30 25 
3 25 24 21 
3 5 31 3 
3 31 32 3 
3 32 4 3 
3 6 7 5 
3 33 34 35 
3 36 33 35 
3 33 36 34 
3 37 34 36 
3 34 37 38 
3 39 34 40 
3 34 41 40 
3 39 41 34 
3 34 38 35 
3 38 42 36 
3 42 37 36 
3 35 38 36 
3 18 20 19 
3 5 4 31 
3 38 37 42 
3 31 4 32 
3 41 39 40 
3 43 44 45 
3 46 43 45 
3 43 46 44 
3 44 46 45 
3 47 48 49 
3 50 47 49 
3 47 50 48 
3 48 50 49 

CELL_DATA 78
SCALARS Materials int
LOOKUP_TABLE default
17 17 17 17 17 17 17 17 17 
17 17 17 17 17 17 17 17 17 
17 17 17 17 17 17 17 17 17 
17 17 17 17 17 17 17 17 17 
17 17 17 17 17 17 17 17 17 
17 17 17 17 17 17 17 17 17 
17 17 17 17 17 17 17 17 17 
17 17 17 17 17 17 17 17 17 
17 17 17 17 17 17 
