# vtk DataFile Version 3.0
vtk output
ASCII
DATASET UNSTRUCTURED_GRID
POINTS 51 float
117.747 118.205 111.15 123.896 106.693 118.15 132.379 115.321 112.427 
119.068 122.829 123.566 216.608 161.084 155.713 208.466 165.757 141.62 
225.521 153.623 148.586 209.639 151.091 149.591 159.425 114.244 115.324 
141.447 109.618 122.333 141.848 124.476 120.266 143.882 118.6 106.421 
221.974 163.302 136.2 154.341 130.774 100.862 164.448 120.678 97.2388 
162.777 134.843 111.219 151.672 129.151 113.087 155.068 109.619 101.584 
152.186 103.945 118.044 108.843 115.246 124.012 125.515 118.455 133.644 
128.188 127.518 116.009 166.675 111.691 105.545 163.931 130.483 65.8944 
164.198 118.425 71.5976 153.481 124.232 61.5497 174.02 123.948 61.1357 
202.998 161.278 152.542 216.537 158.386 169.078 197.602 162.758 163.734 
157.612 114.028 130.492 153.631 128.532 127.814 108.973 125.515 116.501 
169.863 112 58.0127 158.788 107.055 62.7725 93.8172 124.887 124.508 
102.218 113.146 111.797 166.417 116.015 85.4941 162.099 105.707 80.4335 
154.833 113.529 88.6768 93.2049 107.759 123.841 163.588 113.681 46.7181 
183.966 133.271 117.633 171.355 134.509 121.201 177.057 117.566 110.519 
169.305 123.712 128.794 172.291 109.1 135.684 181.031 110.364 153.287 
177.161 125.602 143.098 171.636 120.217 154.503 122.963 132.932 106.009 

CELLS 38 190
4 0 1 2 3 
4 4 5 6 7 
4 8 9 10 11 
4 4 12 6 5 
4 13 14 15 16 
4 8 11 17 18 
4 3 1 19 0 
4 20 1 19 3 
4 2 20 10 21 
4 8 14 22 17 
4 23 24 25 26 
4 4 27 28 29 
4 10 8 30 9 
4 10 16 31 8 
4 32 0 3 19 
4 24 33 34 25 
4 2 1 20 3 
4 32 35 36 19 
4 2 3 20 21 
4 17 14 13 8 
4 11 13 16 8 
4 37 24 38 39 
4 11 17 13 8 
4 35 40 36 19 
4 31 8 30 10 
4 11 16 10 8 
4 8 11 18 9 
4 33 41 34 25 
4 42 43 44 45 
4 32 36 0 19 
4 46 47 48 49 
4 11 9 10 2 
4 24 26 33 25 
4 16 14 15 8 
4 13 14 16 8 
4 0 3 2 21 
4 50 0 21 32 
4 32 0 21 3 

CELL_TYPES 38
10
10
10
10
10
10
10
10
10
10
10
10
10
10
10
10
10
10
10
10
10
10
10
10
10
10
10
10
10
10
10
10
10
10
10
10
10
10

CELL_DATA 38
SCALARS Materials int
LOOKUP_TABLE default
17 17 17 17 17 17 17 17 17 
17 17 17 17 17 17 17 17 17 
17 17 17 17 17 17 17 17 17 
17 17 17 17 17 17 17 17 17 
17 17 
