# vtk DataFile Version 3.0
vtk output
ASCII
DATASET POLYDATA
POINTS 230 float
45.2429 94.1729 192.866 58.3668 88.3008 197.023 48.934 90.6039 204.795 
50.7779 102.904 204.823 69.1274 97.1071 204.825 69.9408 81.8701 197.845 
61.4854 77.2892 190.501 36.1754 116.27 204.757 48.4364 123.411 204.838 
37.8555 99.2593 204.791 29.5729 119.956 192.751 38.3003 107.392 193.895 
36.3457 108.061 181.509 28.6951 129.435 204.782 61.3149 129.822 194.577 
54.3352 136.334 204.78 41.0304 140.602 204.75 71.4516 127.912 204.744 
108.752 201.588 150.505 100.741 207.859 141.633 112.075 214.814 139.317 
121.623 211.244 151.474 122.522 190.745 148.52 112.005 193.185 166.534 
106.76 216.854 151.538 95.1646 219.612 145.236 102.313 225.187 166.67 
113.09 217.225 163.437 28.2515 123.883 181.085 30.5625 114.996 172.782 
44.3555 97.4634 173.287 34.9687 107.55 163.788 39.6096 123.091 172.704 
33.515 133.325 175.051 43.8241 125.506 184.675 50.4192 138.724 191.142 
56.9832 117.211 188.922 39.3407 139.378 184.73 45.5644 112.635 174.312 
31.847 172.939 173.251 29.6982 158.834 170.411 19.3066 161.813 181.543 
33.44 163.574 181.296 64.6324 177.868 204.799 78.3316 181.151 204.832 
67.9686 189.397 204.738 52.4697 184.975 204.814 60.507 198.797 204.78 
122.689 178.685 159.702 109.61 180.839 173.663 138.385 178.113 153.984 
128.574 163.331 160.024 130.746 191.311 159.554 134.313 200.279 178.303 
133.844 183.778 170.662 130.806 194.759 190.197 141.056 167.473 162.477 
142.944 166.103 175.65 133.348 180.953 188.625 130.779 200.822 203.453 
114.367 200.311 204.8 122.152 185.095 204.793 123.881 217.968 199.562 
111.7 216.569 204.815 116.73 226.687 192.436 101.854 227.422 204.788 
47.9812 218.987 183.108 34.1917 202.415 178.499 33.2746 214.214 192.405 
49.4899 223.122 170.797 44.0249 212.539 165.405 61.4669 231.587 191.853 
64.7048 234.132 177.219 25.7292 185.589 185.93 27.7017 198.748 191.038 
23.6991 192.925 172.645 28.3971 209.297 204.817 39.5973 214.348 204.808 
140.234 161.534 204.731 159.608 169.338 204.789 148.391 164.271 192.35 
158.414 153.144 204.852 122.396 147.289 204.73 143.368 147.034 204.852 
142.796 176.146 204.8 161.035 152.697 188.833 155.005 140.369 204.797 
152.822 152.954 175.234 125.685 203.132 164.49 124.041 207.293 176.272 
52.707 219.193 156.755 45.0595 211.216 150.383 67.7966 118.007 194.436 
100.831 103.008 192.528 88.3276 103.928 193.23 98.5584 113.359 204.735 
89.3291 93.8572 185.797 65.9807 144.055 204.83 26.3518 141.738 204.784 
30.5606 153.534 204.84 27.191 195.135 204.815 138.51 150.734 166.381 
146.135 142.669 184.326 132.091 144.216 180.325 71.552 136.912 196.018 
84.8218 139.372 204.836 79.7582 154.998 204.858 89.0444 128.164 197.538 
74.3164 231.317 204.869 69.8124 240.104 187.874 61.322 238.878 204.769 
71.7108 165.688 204.735 109.922 148.658 204.721 116.71 135.604 204.829 
121.762 136.57 192.34 158.144 136.93 190.53 145.445 131.236 204.85 
137.139 130.987 191.254 96.2289 100.2 204.845 109.686 110.083 199.248 
124.998 207.016 189.678 56.8136 206.64 152.28 80.5555 75.6026 192.943 
81.9985 86.4584 204.715 82.6975 84.9506 176.782 93.3926 72.7666 188.045 
71.0715 80.7942 184.003 76.2341 69.9782 175 81.2645 68.1817 204.828 
95.2844 74.7026 204.79 102.482 88.3877 204.809 81.9085 227.933 143.196 
85.8588 214.083 137.902 25.0701 179.292 163.229 35.0347 188.709 163.256 
71.3351 221.252 133.568 136.009 187.918 200.702 98.271 85.1799 191.957 
109.505 143.025 191.196 103.879 137.658 204.699 45.4235 102.754 158.946 
108.225 98.1683 200.726 85.6567 239.785 204.853 81.0084 244.05 192.782 
94.5014 168.221 188.35 85.2616 159.807 192.773 83.8624 174.083 190.604 
98.1288 178.208 182.046 99.0929 156.818 189.575 106.012 166.682 182.501 
69.003 182.295 188.251 81.4616 186.176 185.543 72.2487 170.085 193.025 
95.7133 142.366 192.792 79.1454 146.746 194.343 65.789 154.86 194.365 
92.4212 169.81 204.826 89.769 190.767 204.735 92.5513 151.075 204.825 
109.117 161.181 204.861 104.297 187.271 204.779 111.884 175.182 204.739 
78.715 211.729 148.597 71.8964 206.63 166.383 65.8094 218.729 152.003 
64.0794 212.062 140.354 84.2043 203.745 166.99 91.5163 208.771 149.67 
61.8697 223.607 166.621 77.1398 226.519 158.175 58.866 207.007 165.202 
55.4932 198.065 174.145 69.522 195.368 180.031 84.6064 195.635 176.698 
93.8125 232.421 158.583 75.4327 229.954 170.791 95.1652 205.703 160.974 
98.6789 190.79 173.494 117.433 217.406 179.863 104.793 228.187 183.428 
92.9854 236.214 193.942 92.4004 231.113 174.194 83.4498 104.113 204.799 
79.608 117.087 199.196 64.7184 112.429 204.798 72.3456 106.08 191.139 
74.978 94.3071 183.905 56.6992 98.6971 182.163 95.0237 204.755 204.777 
48.7124 152.528 191.822 43.7403 165.004 188.137 59.8232 168.577 192.768 
44.7623 183.499 181.706 50.1063 175.53 189.528 34.0653 150.633 181.604 
41.4062 159.683 204.794 48.4595 169.964 204.781 33.6681 174.723 204.804 
53.0025 155.104 204.817 59.6112 165.249 204.735 38.843 187.599 204.76 
21.921 147.749 174.964 25.3791 136.43 189.649 23.6535 152.276 191.892 
21.9398 166.124 197.171 21.0053 181.938 204.834 22.5705 173.179 186.488 
55.6926 211.767 204.844 68.1149 216.823 204.762 60.2757 226.482 204.835 
76.469 197.869 204.783 80.8425 211.115 204.732 87.8254 223.19 204.812 
79.4705 233.951 182.69 57.5908 188.077 183.308 43.1883 199.933 156.029 
43.4098 192.947 172.562 37.2459 201.753 166.622 45.1991 203.413 204.854 
125.468 155.063 171.918 115.424 151.976 182.362 116.747 168.266 173.699 
140.319 171.204 186.405 126.743 167.703 204.803 51.1619 225.182 193.125 
48.3384 222.983 204.788 132.961 145.535 194.792 67.9237 87.515 173.689 
57.3792 84.369 181.589 58.5262 89.1166 165.288 
POLYGONS 474 1896
3 0 1 2 
3 1 3 2 
3 4 3 1 
3 4 1 5 
3 5 1 6 
3 7 3 8 
3 3 0 2 
3 9 3 7 
3 0 3 9 
3 10 11 7 
3 11 10 12 
3 11 9 7 
3 11 12 0 
3 11 0 9 
3 13 7 8 
3 13 10 7 
3 14 15 8 
3 15 16 8 
3 8 16 13 
3 17 14 8 
3 18 19 20 
3 18 21 22 
3 23 18 22 
3 21 18 20 
3 19 24 20 
3 24 19 25 
3 24 21 20 
3 26 27 24 
3 27 21 24 
3 12 10 28 
3 12 28 29 
3 12 30 0 
3 12 29 31 
3 12 31 30 
3 29 28 32 
3 32 28 33 
3 14 34 35 
3 36 34 14 
3 34 37 35 
3 38 34 36 
3 34 33 37 
3 34 32 33 
3 38 32 34 
3 39 40 41 
3 39 42 40 
3 43 44 45 
3 46 43 45 
3 45 47 46 
3 48 49 23 
3 50 51 48 
3 52 48 23 
3 50 48 52 
3 52 53 54 
3 54 53 55 
3 56 50 54 
3 57 56 54 
3 54 50 52 
3 54 55 58 
3 22 52 23 
3 59 60 61 
3 60 62 63 
3 60 59 62 
3 63 64 65 
3 62 64 63 
3 66 67 68 
3 69 70 66 
3 66 70 67 
3 71 72 66 
3 72 69 66 
3 73 74 67 
3 67 74 68 
3 67 75 73 
3 74 76 68 
3 77 68 76 
3 78 79 80 
3 78 81 79 
3 82 83 78 
3 78 83 81 
3 80 84 78 
3 79 81 80 
3 85 81 86 
3 81 83 86 
3 80 81 85 
3 80 85 87 
3 57 80 87 
3 88 52 22 
3 21 88 22 
3 27 88 21 
3 88 53 52 
3 89 53 88 
3 89 88 27 
3 90 70 69 
3 90 91 70 
3 14 92 36 
3 93 94 95 
3 96 94 93 
3 35 97 14 
3 98 16 99 
3 13 16 98 
3 73 100 74 
3 39 73 75 
3 57 87 101 
3 57 101 56 
3 56 101 51 
3 101 102 103 
3 101 87 102 
3 17 97 15 
3 104 105 97 
3 105 106 97 
3 97 104 14 
3 97 17 104 
3 107 104 105 
3 104 17 105 
3 107 17 104 
3 104 17 14 
3 108 109 71 
3 72 71 109 
3 108 71 110 
3 43 111 44 
3 112 113 82 
3 113 114 82 
3 85 102 87 
3 85 115 102 
3 85 86 115 
3 116 86 83 
3 117 116 83 
3 116 115 86 
3 14 17 15 
3 14 17 92 
3 17 107 105 
3 51 50 56 
3 118 119 95 
3 119 93 95 
3 55 53 120 
3 53 89 120 
3 91 90 121 
3 122 123 5 
3 124 125 122 
3 122 126 127 
3 124 122 127 
3 123 122 128 
3 122 129 128 
3 125 129 122 
3 122 5 126 
3 123 4 5 
3 126 5 6 
3 130 123 129 
3 129 123 128 
3 123 130 118 
3 74 100 76 
3 120 59 55 
3 59 120 62 
3 131 25 132 
3 117 102 116 
3 102 115 116 
3 133 39 75 
3 39 133 134 
3 134 133 75 
3 135 131 132 
3 136 84 58 
3 136 59 61 
3 55 59 136 
3 55 136 58 
3 96 125 124 
3 137 125 96 
3 137 96 93 
3 126 124 127 
3 129 125 137 
3 114 113 138 
3 113 139 138 
3 31 38 140 
3 30 31 140 
3 29 38 31 
3 38 30 140 
3 38 29 32 
3 130 141 118 
3 141 119 118 
3 93 141 130 
3 93 119 141 
3 130 137 93 
3 139 113 112 
3 139 105 107 
3 108 142 143 
3 108 143 109 
3 130 129 137 
3 144 145 146 
3 147 144 146 
3 148 145 144 
3 149 144 147 
3 148 144 149 
3 146 150 151 
3 151 147 146 
3 145 152 146 
3 150 146 152 
3 153 154 145 
3 153 145 148 
3 106 155 145 
3 145 154 106 
3 145 155 152 
3 156 157 44 
3 158 159 156 
3 111 156 44 
3 156 160 157 
3 106 156 111 
3 158 156 106 
3 156 159 161 
3 161 160 156 
3 162 163 164 
3 162 164 165 
3 135 162 165 
3 162 135 164 
3 162 164 131 
3 162 166 163 
3 162 135 132 
3 162 131 135 
3 162 167 166 
3 167 162 132 
3 164 168 169 
3 164 135 165 
3 164 169 131 
3 168 164 90 
3 164 163 170 
3 164 121 90 
3 164 170 121 
3 171 170 163 
3 172 171 163 
3 173 172 163 
3 166 173 163 
3 174 169 175 
3 168 175 169 
3 174 131 169 
3 167 176 166 
3 176 23 177 
3 23 176 18 
3 177 166 176 
3 176 167 18 
3 151 177 147 
3 177 49 147 
3 23 49 177 
3 173 177 151 
3 177 173 166 
3 178 89 27 
3 120 89 178 
3 178 179 64 
3 64 62 178 
3 62 120 178 
3 178 27 26 
3 178 26 179 
3 180 179 181 
3 65 179 180 
3 64 179 65 
3 26 181 179 
3 182 183 184 
3 183 182 185 
3 183 94 182 
3 95 183 182 
3 183 95 94 
3 92 17 183 
3 17 184 183 
3 92 183 185 
3 94 185 182 
3 94 186 185 
3 185 187 36 
3 36 92 185 
3 185 186 187 
3 182 118 95 
3 182 184 4 
3 123 118 182 
3 123 182 4 
3 3 184 8 
3 184 17 8 
3 184 3 4 
3 149 147 49 
3 60 188 160 
3 188 157 160 
3 161 61 160 
3 61 60 160 
3 90 69 168 
3 72 175 168 
3 69 72 168 
3 189 190 191 
3 192 193 190 
3 190 189 194 
3 193 191 190 
3 194 42 190 
3 192 190 42 
3 195 196 197 
3 196 43 46 
3 195 198 196 
3 198 199 196 
3 196 199 43 
3 200 197 196 
3 46 200 196 
3 189 37 194 
3 35 189 155 
3 191 155 189 
3 189 35 37 
3 155 191 152 
3 150 152 191 
3 150 191 193 
3 201 202 203 
3 202 201 33 
3 10 202 28 
3 202 98 203 
3 10 13 202 
3 202 33 28 
3 202 13 98 
3 40 194 201 
3 33 201 194 
3 37 33 194 
3 40 42 194 
3 41 40 201 
3 201 203 41 
3 204 41 203 
3 99 204 203 
3 203 98 99 
3 19 167 25 
3 25 167 132 
3 167 19 18 
3 199 198 155 
3 111 199 155 
3 199 111 43 
3 154 104 155 
3 104 97 155 
3 97 35 155 
3 198 97 155 
3 111 155 106 
3 106 154 155 
3 97 106 155 
3 16 198 195 
3 97 198 15 
3 15 198 16 
3 204 197 205 
3 206 204 205 
3 204 99 197 
3 204 206 41 
3 99 195 197 
3 205 197 200 
3 73 206 205 
3 206 39 41 
3 206 73 39 
3 205 200 100 
3 73 205 100 
3 16 195 99 
3 207 208 209 
3 210 211 208 
3 47 208 207 
3 212 108 208 
3 47 210 208 
3 208 211 212 
3 208 108 209 
3 180 181 213 
3 180 213 143 
3 213 175 72 
3 213 181 175 
3 213 72 109 
3 143 213 109 
3 172 151 150 
3 150 214 172 
3 214 171 172 
3 172 173 151 
3 158 139 112 
3 139 158 105 
3 105 158 106 
3 112 159 158 
3 105 154 153 
3 139 107 153 
3 107 105 153 
3 139 153 138 
3 138 153 148 
3 154 105 104 
3 170 171 215 
3 121 170 215 
3 216 171 214 
3 171 216 215 
3 216 217 215 
3 134 217 216 
3 217 134 75 
3 67 217 75 
3 217 70 215 
3 67 70 217 
3 91 215 70 
3 215 91 121 
3 192 216 214 
3 214 150 193 
3 192 214 193 
3 39 134 192 
3 134 216 192 
3 192 42 39 
3 200 46 218 
3 100 200 218 
3 218 47 207 
3 218 207 77 
3 218 77 76 
3 100 218 76 
3 46 47 218 
3 181 174 175 
3 174 24 25 
3 26 24 174 
3 174 25 131 
3 181 26 174 
3 210 157 188 
3 44 157 210 
3 45 44 210 
3 210 188 211 
3 47 45 210 
3 188 60 63 
3 188 65 212 
3 188 63 65 
3 211 188 212 
3 219 220 221 
3 101 103 219 
3 51 101 219 
3 51 219 221 
3 219 103 220 
3 220 138 148 
3 149 220 148 
3 114 138 220 
3 114 220 103 
3 221 220 149 
3 222 57 54 
3 58 222 54 
3 222 58 84 
3 80 222 84 
3 80 57 222 
3 51 221 48 
3 221 149 49 
3 48 221 49 
3 159 82 223 
3 112 82 159 
3 161 159 223 
3 82 78 223 
3 84 136 223 
3 161 223 61 
3 136 61 223 
3 78 84 223 
3 71 224 209 
3 71 66 224 
3 209 224 225 
3 225 224 77 
3 77 224 68 
3 224 66 68 
3 207 209 225 
3 207 225 77 
3 71 209 110 
3 209 108 110 
3 83 82 226 
3 102 117 226 
3 117 83 226 
3 102 226 103 
3 226 114 103 
3 82 114 226 
3 187 227 228 
3 187 186 227 
3 187 38 36 
3 30 187 0 
3 187 228 0 
3 187 30 228 
3 229 187 228 
3 187 229 30 
3 38 187 30 
3 227 126 228 
3 186 126 227 
3 96 124 186 
3 124 126 186 
3 96 186 94 
3 0 228 1 
3 30 229 228 
3 126 6 228 
3 6 1 228 
3 212 65 142 
3 212 142 108 
3 142 180 143 
3 65 180 142 

CELL_DATA 474
SCALARS Materials int
LOOKUP_TABLE default
193 193 193 193 193 193 193 193 193 
193 193 193 193 193 193 193 193 193 
193 193 193 193 193 193 193 193 193 
193 193 193 193 193 193 193 193 193 
193 193 193 193 193 193 193 193 193 
193 193 193 193 193 193 193 193 193 
193 193 193 193 193 193 193 193 193 
193 193 193 193 193 193 193 193 193 
193 193 193 193 193 193 193 193 193 
193 193 193 193 193 193 193 193 193 
193 193 193 193 193 193 193 193 193 
193 193 193 193 193 193 193 193 193 
193 193 193 193 193 193 193 193 193 
193 193 193 193 193 193 193 193 193 
193 193 193 193 193 193 193 193 193 
193 193 193 193 193 193 193 193 193 
193 193 193 193 193 193 193 193 193 
193 193 193 193 193 193 193 193 193 
193 193 193 193 193 193 193 193 193 
193 193 193 193 193 193 193 193 193 
193 193 193 193 193 193 193 193 193 
193 193 193 193 193 193 193 193 193 
193 193 193 193 193 193 193 193 193 
193 193 193 193 193 193 193 193 193 
193 193 193 193 193 193 193 193 193 
193 193 193 193 193 193 193 193 193 
193 193 193 193 193 193 193 193 193 
193 193 193 193 193 193 193 193 193 
193 193 193 193 193 193 193 193 193 
193 193 193 193 193 193 193 193 193 
193 193 193 193 193 193 193 193 193 
193 193 193 193 193 193 193 193 193 
193 193 193 193 193 193 193 193 193 
193 193 193 193 193 193 193 193 193 
193 193 193 193 193 193 193 193 193 
193 193 193 193 193 193 193 193 193 
193 193 193 193 193 193 193 193 193 
193 193 193 193 193 193 193 193 193 
193 193 193 193 193 193 193 193 193 
193 193 193 193 193 193 193 193 193 
193 193 193 193 193 193 193 193 193 
193 193 193 193 193 193 193 193 193 
193 193 193 193 193 193 193 193 193 
193 193 193 193 193 193 193 193 193 
193 193 193 193 193 193 193 193 193 
193 193 193 193 193 193 193 193 193 
193 193 193 193 193 193 193 193 193 
193 193 193 193 193 193 193 193 193 
193 193 193 193 193 193 193 193 193 
193 193 193 193 193 193 193 193 193 
193 193 193 193 193 193 193 193 193 
193 193 193 193 193 193 193 193 193 
193 193 193 193 193 193 
