# vtk DataFile Version 3.0
vtk output
ASCII
DATASET POLYDATA
POINTS 85 float
208.312 212.488 145.383 192.703 206.649 160.169 207.277 202.123 160.851 
190.139 200.675 146.158 218.799 209.41 165.602 222.003 219.581 155.87 
205.338 191.112 97.0164 198.606 184.376 105.359 203.13 199.183 114.313 
216.397 206.926 116.007 216.016 197.911 96.8875 193.871 193.135 119.1 
216.855 178.356 126.331 203.529 179.994 128.773 205.709 181.521 115.966 
205.48 162.304 129.546 187.382 170.585 131.817 189.407 181.943 119.245 
210.906 151.793 116.226 216.586 156.51 126.73 221.974 163.302 136.2 
202.771 163.973 116.195 200.797 151.547 102.847 194.273 161.791 106.455 
204.943 167.793 103.194 223.564 151.961 104.044 195.906 167.295 144.17 
208.466 165.757 141.62 208.792 175.981 72.4071 202.449 182.74 87.9695 
219.755 187.115 79.3233 198.025 172.345 80.2212 213.467 166.042 64.8086 
198.902 162.101 71.1676 224.644 169.731 71.1198 229.184 180.014 76.0128 
224.001 194.173 88.3868 212.284 149.577 90.7873 199.447 151.722 82.5416 
192.379 163.681 89.206 196.341 174.244 95.783 209.907 179.546 101.567 
214.944 155.226 72.5024 230.136 209.696 109.495 182.712 183.993 129.624 
188.462 195.114 129.685 182.072 181.019 141.768 191.682 175.737 155.219 
187.837 189.34 158.591 181.904 199.775 160.762 205.423 179.972 157.321 
202.998 161.278 152.542 223.11 187.458 151.868 212.346 190.986 157.551 
216.911 172.881 148.296 200.655 191.163 162.44 198.235 175.074 166.487 
231.15 176.721 144.82 236.352 193.759 149.627 226.15 215.262 121.792 
239.962 191.802 136.054 239.185 203.769 120.49 231.262 208.322 132.917 
247.596 190.878 119.494 244.629 174.299 138.338 234.828 166.377 133.561 
244.088 182.386 128.44 245.945 175.073 118.109 236.031 191.29 89.8631 
198.72 206.383 134.097 209.664 215.427 127.019 221.155 213.342 140.687 
226.813 204.245 149.228 227.196 157.957 84.7017 235.599 174.123 84.6411 
235.26 164.32 99.6715 245.36 180.575 103.148 218.416 183.879 113.95 
219.737 171.797 104.522 219.347 167.027 119.141 225.884 155.314 117 
240.849 167.052 110.29 240.258 196.727 105.364 229.269 199.326 98.1683 
236.9 162.235 120.905 
POLYGONS 166 664
3 0 1 2 
3 3 1 0 
3 4 0 2 
3 5 0 4 
3 6 7 8 
3 8 9 10 
3 6 8 10 
3 8 7 11 
3 12 13 14 
3 15 16 13 
3 14 13 17 
3 15 13 12 
3 13 16 17 
3 18 19 15 
3 19 20 15 
3 21 18 15 
3 21 22 18 
3 23 22 21 
3 24 23 21 
3 22 25 18 
3 26 16 15 
3 26 15 27 
3 27 15 20 
3 28 29 30 
3 29 28 31 
3 28 32 33 
3 31 28 33 
3 28 34 32 
3 28 30 35 
3 34 28 35 
3 6 30 29 
3 36 30 6 
3 35 30 36 
3 37 25 22 
3 38 22 39 
3 38 37 22 
3 23 39 22 
3 23 24 40 
3 24 41 40 
3 37 38 42 
3 39 31 33 
3 38 39 33 
3 40 31 39 
3 23 40 39 
3 29 7 6 
3 10 36 6 
3 14 7 41 
3 41 7 40 
3 9 43 10 
3 29 31 40 
3 42 38 33 
3 32 42 33 
3 7 29 40 
3 44 45 17 
3 11 17 45 
3 46 3 45 
3 46 45 44 
3 16 44 17 
3 46 44 16 
3 11 14 17 
3 7 14 11 
3 46 26 47 
3 26 46 16 
3 48 3 46 
3 47 48 46 
3 1 3 49 
3 3 48 49 
3 47 26 50 
3 50 26 51 
3 50 52 53 
3 50 54 52 
3 53 55 50 
3 54 50 51 
3 47 50 56 
3 50 55 56 
3 55 2 1 
3 48 55 1 
3 48 1 49 
3 2 55 53 
3 54 57 52 
3 58 52 57 
3 34 42 32 
3 59 43 9 
3 60 61 62 
3 62 58 60 
3 62 61 59 
3 48 47 55 
3 55 47 56 
3 61 43 59 
3 60 63 61 
3 20 57 54 
3 54 27 20 
3 27 54 51 
3 26 27 51 
3 57 64 60 
3 60 58 57 
3 57 20 65 
3 65 64 57 
3 66 63 60 
3 67 63 66 
3 67 66 65 
3 64 66 60 
3 64 65 66 
3 35 36 68 
3 3 69 45 
3 8 69 70 
3 69 0 70 
3 3 0 69 
3 11 69 8 
3 45 69 11 
3 62 59 71 
3 59 70 71 
3 5 71 0 
3 5 72 71 
3 0 71 70 
3 72 62 71 
3 59 9 70 
3 9 8 70 
3 73 74 75 
3 25 73 75 
3 34 73 42 
3 37 73 25 
3 73 37 42 
3 73 34 74 
3 74 68 76 
3 74 76 75 
3 34 35 74 
3 74 35 68 
3 77 78 79 
3 41 24 78 
3 79 78 24 
3 41 78 77 
3 75 80 25 
3 75 81 80 
3 75 76 81 
3 76 63 67 
3 63 76 82 
3 81 76 67 
3 76 68 82 
3 43 82 83 
3 61 82 43 
3 63 82 61 
3 82 68 83 
3 83 68 36 
3 43 83 10 
3 10 83 36 
3 77 12 14 
3 12 77 79 
3 14 41 77 
3 79 24 21 
3 79 21 15 
3 79 15 12 
3 80 81 84 
3 80 84 20 
3 19 80 20 
3 18 25 80 
3 18 80 19 
3 81 67 84 
3 84 65 20 
3 84 67 65 
3 72 4 2 
3 52 72 53 
3 58 62 72 
3 72 5 4 
3 72 52 58 
3 53 72 2 

CELL_DATA 166
SCALARS Materials int
LOOKUP_TABLE default
97 97 97 97 97 97 97 97 97 
97 97 97 97 97 97 97 97 97 
97 97 97 97 97 97 97 97 97 
97 97 97 97 97 97 97 97 97 
97 97 97 97 97 97 97 97 97 
97 97 97 97 97 97 97 97 97 
97 97 97 97 97 97 97 97 97 
97 97 97 97 97 97 97 97 97 
97 97 97 97 97 97 97 97 97 
97 97 97 97 97 97 97 97 97 
97 97 97 97 97 97 97 97 97 
97 97 97 97 97 97 97 97 97 
97 97 97 97 97 97 97 97 97 
97 97 97 97 97 97 97 97 97 
97 97 97 97 97 97 97 97 97 
97 97 97 97 97 97 97 97 97 
97 97 97 97 97 97 97 97 97 
97 97 97 97 97 97 97 97 97 
97 97 97 97 
