# vtk DataFile Version 3.0
vtk output
ASCII
DATASET POLYDATA
POINTS 99 float
120.632 98.0158 102.397 116.137 89.8292 112.94 123.923 86.5566 98.3827 
92.601 199.056 123.956 105.088 194.768 136.804 102.474 205.254 127.108 
110.536 131.847 181.364 121.105 138.224 178.806 116.748 126.838 172.002 
115.962 77.8778 120.39 118.262 76.8542 107.675 112.236 60.0496 115.767 
114.71 62.3969 133.78 98.6153 63.3557 117.758 104.264 61.8375 106.368 
101.47 64.6817 134.469 95.275 65.0574 98.3717 115.827 65.0111 103.005 
107.93 65.3241 90.1384 119.937 69.3633 91.1564 116.586 81.5097 89.497 
104.005 84.716 85.6403 164.531 65.7879 146.566 150.696 64.9727 143.894 
153.013 77.7335 143.165 158.636 67.5614 157.307 145.874 66.4514 155.77 
162.07 83.3882 150.564 143.353 80.7504 151.31 151.391 90.31 146.943 
109.505 143.025 191.196 89.3457 70.9363 88.7351 99.0376 73.1082 80.7395 
123.32 83.1094 186.431 140.268 91.4635 176.756 137.076 82.5883 189.44 
130.801 94.7504 192.797 159.461 90.3324 189.609 145.757 93.7966 192.785 
150.962 80.1974 189.243 143.224 73.4716 181.382 116.554 192.578 128.171 
54.8831 98.249 105.505 70.1678 95.6756 116.109 68.777 107.156 112.64 
55.8381 112.415 101.169 65.2952 86.4986 97.274 57.9998 97.0153 92.1201 
54.5983 84.2703 108.329 63.0222 86.5926 119.603 75.1333 85.3973 124.077 
69.3359 78.9996 108.997 81.9696 108.523 117.476 79.0406 97.7606 124.027 
69.5217 86.4085 80.0589 79.0248 75.6138 94.5818 69.6119 113.029 95.6666 
76.8887 114.334 105.999 108.598 101.574 114.832 93.2049 107.759 123.841 
102.506 91.9825 126.754 90.9712 96.618 129.66 101.564 75.9866 127.176 
87.3735 85.7161 135.245 84.6876 70.1746 106.586 78.5559 73.9748 118.985 
88.9563 68.0931 127.193 72.5252 101.804 82.344 58.9534 111.118 88.7982 
86.0813 109.16 86.0046 105.388 183.207 129.787 93.2233 189.053 130.692 
102.214 177.503 117.939 118.557 179.999 120.345 92.6724 188.152 116.344 
111.125 188.443 110.498 99.9648 198.919 110.19 108.819 114.269 100.008 
117.747 118.205 111.15 102.218 113.146 111.797 96.2586 109.717 95.6696 
110.474 101.929 93.5605 89.3484 112.428 107.594 98.2707 95.2002 92.0145 
100.027 106.535 82.0136 107.255 195.776 120.125 128.697 127.424 174.87 
124.96 113.916 186.131 124.347 114.251 163.434 137.139 130.987 191.254 
132.091 144.216 180.325 111.97 115.949 175.153 126.246 126.775 204.801 
112.721 121.903 195.28 137.738 115.969 194.393 121.762 136.57 192.34 
86.8311 85.9716 83.9871 92.9467 96.341 80.688 84.8653 96.5797 71.1779 

POLYGONS 178 712
3 0 1 2 
3 3 4 5 
3 6 7 8 
3 1 9 10 
3 11 9 12 
3 10 9 11 
3 13 14 11 
3 13 11 15 
3 14 13 16 
3 17 14 18 
3 14 16 18 
3 14 17 11 
3 15 11 12 
3 17 10 11 
3 2 19 20 
3 10 19 2 
3 2 1 10 
3 20 18 21 
3 19 18 20 
3 22 23 24 
3 23 22 25 
3 25 26 23 
3 26 24 23 
3 25 27 28 
3 25 28 26 
3 25 22 27 
3 22 24 27 
3 29 24 28 
3 24 29 27 
3 28 24 26 
3 6 30 7 
3 27 29 28 
3 31 18 16 
3 32 18 31 
3 21 18 32 
3 33 34 35 
3 34 33 36 
3 37 34 38 
3 34 37 39 
3 34 36 38 
3 40 34 39 
3 34 40 35 
3 36 33 35 
3 36 35 38 
3 35 39 38 
3 35 40 39 
3 10 17 19 
3 39 37 38 
3 4 41 5 
3 19 17 18 
3 42 43 44 
3 42 44 45 
3 46 42 47 
3 42 45 47 
3 42 48 43 
3 46 48 42 
3 49 50 43 
3 51 49 43 
3 48 51 43 
3 43 52 44 
3 43 53 52 
3 43 50 53 
3 54 55 46 
3 46 51 48 
3 54 46 47 
3 55 51 46 
3 44 56 45 
3 56 44 57 
3 52 57 44 
3 58 59 60 
3 59 61 60 
3 9 60 62 
3 60 9 1 
3 60 63 62 
3 63 60 61 
3 60 1 58 
3 51 64 65 
3 55 31 64 
3 64 66 65 
3 64 13 66 
3 31 16 64 
3 16 13 64 
3 55 64 51 
3 63 66 62 
3 9 62 12 
3 62 13 15 
3 13 62 66 
3 62 15 12 
3 51 65 50 
3 66 63 65 
3 63 50 65 
3 67 54 47 
3 67 47 68 
3 47 45 68 
3 56 67 68 
3 45 56 68 
3 57 69 56 
3 69 67 56 
3 59 53 61 
3 53 59 52 
3 63 53 50 
3 53 63 61 
3 49 51 50 
3 70 71 72 
3 73 70 72 
3 4 71 70 
3 4 70 41 
3 73 41 70 
3 71 74 72 
3 71 3 74 
3 71 4 3 
3 75 74 76 
3 74 75 72 
3 74 3 76 
3 73 72 75 
3 58 0 77 
3 58 1 0 
3 58 78 79 
3 77 78 58 
3 59 58 79 
3 80 77 81 
3 79 77 80 
3 80 69 82 
3 82 79 80 
3 80 81 83 
3 80 84 69 
3 84 80 83 
3 77 0 81 
3 78 77 79 
3 81 21 83 
3 21 81 20 
3 81 2 20 
3 81 0 2 
3 85 75 76 
3 41 85 5 
3 3 85 76 
3 41 73 85 
3 85 73 75 
3 85 3 5 
3 82 57 52 
3 69 57 82 
3 86 87 88 
3 8 86 88 
3 86 89 87 
3 90 86 7 
3 90 89 86 
3 7 86 8 
3 88 87 91 
3 8 88 91 
3 87 92 93 
3 91 87 93 
3 87 94 92 
3 87 89 94 
3 6 91 93 
3 8 91 6 
3 92 95 93 
3 7 30 95 
3 92 89 95 
3 30 93 95 
3 90 7 95 
3 89 90 95 
3 94 89 92 
3 6 93 30 
3 52 59 82 
3 82 59 79 
3 54 96 55 
3 96 54 67 
3 21 32 96 
3 32 31 96 
3 83 21 96 
3 96 31 55 
3 97 83 96 
3 96 98 97 
3 98 96 67 
3 84 83 97 
3 98 67 69 
3 97 98 69 
3 84 97 69 

CELL_DATA 178
SCALARS Materials int
LOOKUP_TABLE default
449 449 449 449 449 449 449 449 449 
449 449 449 449 449 449 449 449 449 
449 449 449 449 449 449 449 449 449 
449 449 449 449 449 449 449 449 449 
449 449 449 449 449 449 449 449 449 
449 449 449 449 449 449 449 449 449 
449 449 449 449 449 449 449 449 449 
449 449 449 449 449 449 449 449 449 
449 449 449 449 449 449 449 449 449 
449 449 449 449 449 449 449 449 449 
449 449 449 449 449 449 449 449 449 
449 449 449 449 449 449 449 449 449 
449 449 449 449 449 449 449 449 449 
449 449 449 449 449 449 449 449 449 
449 449 449 449 449 449 449 449 449 
449 449 449 449 449 449 449 449 449 
449 449 449 449 449 449 449 449 449 
449 449 449 449 449 449 449 449 449 
449 449 449 449 449 449 449 449 449 
449 449 449 449 449 449 449 
