# vtk DataFile Version 3.0
vtk output
ASCII
DATASET POLYDATA
POINTS 88 float
198.235 175.074 166.487 197.602 162.758 163.734 196.742 163.987 181.735 
205.049 156.155 175.145 191.682 175.737 155.219 265.359 165.499 170.355 
254.573 159.866 180.446 262.511 146.406 166.509 274.744 150.631 166.034 
252.728 154.632 151.991 269.567 144.341 146.776 240.351 150.905 166.477 
244.209 159.426 158.956 273.779 137.74 160.209 249.578 136.771 170.436 
261.128 142.501 184.713 230.627 137.29 188.04 235.113 136.553 176.57 
242.475 143.001 184.083 241.093 155.529 187.932 230.582 154.08 159.758 
228.161 152.392 171.672 269.732 187.83 150.706 260.828 187.496 141.854 
256.373 194.147 151.303 254.412 203.053 131.647 247.528 202.449 148.812 
249.672 194.993 165.473 255.939 204.342 159.832 243.456 205.945 160.179 
234.471 203.504 169.506 239.939 191.245 176.869 250.288 180.497 180.304 
223.11 187.458 151.868 212.346 190.986 157.551 221.609 195.249 165.524 
226.813 204.245 149.228 233.393 165.628 155.905 216.222 190.707 179.658 
231.763 180.92 184.676 227.81 195.359 176.81 212.578 172.286 186.423 
229.775 162.277 187.993 243.635 168.399 186.68 205.803 183.763 171.674 
252.281 150.407 187.974 194.469 179.039 180.025 245.945 175.073 118.109 
257.917 161.199 117.023 251.538 164.009 130.143 261.775 178.67 124.325 
275.285 145.994 127.252 265.196 139.221 134.393 263.014 148.61 120.816 
265.313 177.929 135.901 256.305 189.661 129.507 244.088 182.386 128.44 
247.596 190.878 119.494 232.463 211.985 159.345 205.621 153.175 187.973 
193.596 149.608 183.133 203.027 131.923 183.158 209.52 126.779 173.17 
214.301 132.755 188.037 236.352 193.759 149.627 239.962 191.802 136.054 
231.15 176.721 144.82 244.629 174.299 138.338 216.911 172.881 148.296 
244.75 165.082 148.383 253.387 160.392 141.459 216.537 158.386 169.078 
223.598 140.975 176.829 209.052 142.549 178.392 216.608 161.084 155.713 
220.421 150.5 188.026 276.093 177.406 147.769 266.544 176.426 158.992 
271 159.102 156.98 268.754 166.415 137.536 258.862 187.131 161.908 
259.827 177.234 171.979 267.479 160.231 126 269.679 153.192 136.889 
256.779 150.475 133.326 202.998 161.278 152.542 205.423 179.972 157.321 
208.466 165.757 141.62 
POLYGONS 172 688
3 0 1 2 
3 1 3 2 
3 4 1 0 
3 5 6 7 
3 5 7 8 
3 7 9 10 
3 11 12 9 
3 7 11 9 
3 13 7 10 
3 7 13 8 
3 7 14 11 
3 15 14 7 
3 6 15 7 
3 16 17 18 
3 19 16 18 
3 20 11 21 
3 21 11 17 
3 22 23 24 
3 25 24 23 
3 26 24 25 
3 27 24 28 
3 24 26 28 
3 28 29 27 
3 30 27 29 
3 31 32 27 
3 31 27 30 
3 33 34 35 
3 35 36 33 
3 12 20 37 
3 38 39 40 
3 39 32 31 
3 39 41 42 
3 38 41 39 
3 39 42 43 
3 39 43 32 
3 40 39 31 
3 38 40 35 
3 34 44 35 
3 38 35 44 
3 36 35 30 
3 40 30 35 
3 43 42 19 
3 6 43 19 
3 32 43 6 
3 20 12 11 
3 11 14 17 
3 19 45 6 
3 45 15 6 
3 38 44 41 
3 46 44 0 
3 46 41 44 
3 47 48 49 
3 50 48 47 
3 51 52 53 
3 54 55 23 
3 54 23 22 
3 55 25 23 
3 47 49 56 
3 40 31 30 
3 17 14 18 
3 18 45 19 
3 15 18 14 
3 18 15 45 
3 46 0 2 
3 8 13 10 
3 50 55 54 
3 50 57 55 
3 57 50 47 
3 57 56 55 
3 57 47 56 
3 26 29 28 
3 30 29 58 
3 30 58 36 
3 41 46 2 
3 41 2 59 
3 2 3 60 
3 2 60 59 
3 61 62 63 
3 64 65 66 
3 64 66 33 
3 58 64 36 
3 36 64 33 
3 29 26 64 
3 29 64 58 
3 26 65 64 
3 66 65 67 
3 68 66 37 
3 33 66 68 
3 66 69 37 
3 66 67 69 
3 26 25 65 
3 25 55 65 
3 65 55 56 
3 65 56 67 
3 56 49 67 
3 67 49 70 
3 67 70 69 
3 71 72 73 
3 20 21 71 
3 72 71 21 
3 71 73 3 
3 74 71 1 
3 1 71 3 
3 74 20 71 
3 60 73 59 
3 3 73 60 
3 73 72 62 
3 73 63 75 
3 59 73 75 
3 61 63 73 
3 62 61 73 
3 16 72 17 
3 62 72 63 
3 72 16 63 
3 21 17 72 
3 19 75 16 
3 19 42 75 
3 42 41 75 
3 63 16 75 
3 75 41 59 
3 76 77 78 
3 79 76 78 
3 77 76 22 
3 76 54 22 
3 79 54 76 
3 77 80 81 
3 77 5 78 
3 80 77 22 
3 5 77 81 
3 82 79 83 
3 50 54 79 
3 82 50 79 
3 79 78 83 
3 83 78 10 
3 78 8 10 
3 78 5 8 
3 24 27 80 
3 81 80 32 
3 80 22 24 
3 80 27 32 
3 69 9 12 
3 69 70 9 
3 37 69 12 
3 6 5 81 
3 6 81 32 
3 84 48 53 
3 9 84 10 
3 70 84 9 
3 52 10 84 
3 53 52 84 
3 49 48 84 
3 49 84 70 
3 48 82 53 
3 82 83 53 
3 48 50 82 
3 51 53 83 
3 52 51 83 
3 83 10 52 
3 85 74 1 
3 85 4 86 
3 4 85 1 
3 85 87 74 
3 87 85 68 
3 85 86 68 
3 68 37 74 
3 87 68 74 
3 74 37 20 
3 33 68 86 
3 4 0 86 
3 86 44 34 
3 33 86 34 
3 0 44 86 

CELL_DATA 172
SCALARS Materials int
LOOKUP_TABLE default
321 321 321 321 321 321 321 321 321 
321 321 321 321 321 321 321 321 321 
321 321 321 321 321 321 321 321 321 
321 321 321 321 321 321 321 321 321 
321 321 321 321 321 321 321 321 321 
321 321 321 321 321 321 321 321 321 
321 321 321 321 321 321 321 321 321 
321 321 321 321 321 321 321 321 321 
321 321 321 321 321 321 321 321 321 
321 321 321 321 321 321 321 321 321 
321 321 321 321 321 321 321 321 321 
321 321 321 321 321 321 321 321 321 
321 321 321 321 321 321 321 321 321 
321 321 321 321 321 321 321 321 321 
321 321 321 321 321 321 321 321 321 
321 321 321 321 321 321 321 321 321 
321 321 321 321 321 321 321 321 321 
321 321 321 321 321 321 321 321 321 
321 321 321 321 321 321 321 321 321 
321 
