# vtk DataFile Version 3.0
vtk output
ASCII
DATASET UNSTRUCTURED_GRID
POINTS 230 float
94.5014 168.221 188.35 83.8624 174.083 190.604 85.2616 159.807 192.773 
92.4212 169.81 204.826 78.715 211.729 148.597 65.8094 218.729 152.003 
71.8964 206.63 166.383 77.1398 226.519 158.175 95.1652 205.703 160.974 
98.6789 190.79 173.494 117.433 217.406 179.863 104.793 228.187 183.428 
79.608 117.087 199.196 72.3456 106.08 191.139 83.4498 104.113 204.799 
64.7184 112.429 204.798 98.1288 178.208 182.046 104.297 187.271 204.779 
61.8697 223.607 166.621 43.7403 165.004 188.137 48.4595 169.964 204.781 
48.7124 152.528 191.822 59.8232 168.577 192.768 25.3791 136.43 189.649 
34.0653 150.633 181.604 21.921 147.749 174.964 23.6535 152.276 191.892 
91.5163 208.771 149.67 84.2043 203.745 166.99 59.6112 165.249 204.735 
65.789 154.86 194.365 53.0025 155.104 204.817 21.9398 166.124 197.171 
33.6681 174.723 204.804 22.5705 173.179 186.488 21.0053 181.938 204.834 
41.4062 159.683 204.794 68.1149 216.823 204.762 79.4705 233.951 182.69 
69.522 195.368 180.031 92.5513 151.075 204.825 95.7133 142.366 192.792 
79.1454 146.746 194.343 58.866 207.007 165.202 55.4932 198.065 174.145 
37.2459 201.753 166.622 43.1883 199.933 156.029 57.5908 188.077 183.308 
44.7623 183.499 181.706 38.843 187.599 204.76 45.1991 203.413 204.854 
93.8125 232.421 158.583 92.4004 231.113 174.194 75.4327 229.954 170.791 
84.6064 195.635 176.698 76.469 197.869 204.783 89.769 190.767 204.735 
95.0237 204.755 204.777 125.468 155.063 171.918 115.424 151.976 182.362 
140.319 171.204 186.405 116.747 168.266 173.699 106.012 166.682 182.501 
109.117 161.181 204.861 126.743 167.703 204.803 51.1619 225.182 193.125 
55.6926 211.767 204.844 60.2757 226.482 204.835 132.961 145.535 194.792 
56.6992 98.6971 182.163 67.9237 87.515 173.689 74.978 94.3071 183.905 
57.3792 84.369 181.589 87.8254 223.19 204.812 92.9854 236.214 193.942 
58.3668 88.3008 197.023 50.7779 102.904 204.823 38.3003 107.392 193.895 
36.1754 116.27 204.757 48.4364 123.411 204.838 108.752 201.588 150.505 
100.741 207.859 141.633 106.76 216.854 151.538 112.075 214.814 139.317 
36.3457 108.061 181.509 28.2515 123.883 181.085 29.5729 119.956 192.751 
43.8241 125.506 184.675 29.6982 158.834 170.411 19.3066 161.813 181.543 
69.003 182.295 188.251 67.9686 189.397 204.738 81.4616 186.176 185.543 
50.1063 175.53 189.528 52.4697 184.975 204.814 122.689 178.685 159.702 
109.61 180.839 173.663 133.844 183.778 170.662 112.005 193.185 166.534 
114.367 200.311 204.8 111.7 216.569 204.815 47.9812 218.987 183.108 
34.1917 202.415 178.499 33.2746 214.214 192.405 140.234 161.534 204.731 
159.608 169.338 204.789 158.414 153.144 204.852 148.391 164.271 192.35 
125.685 203.132 164.49 122.522 190.745 148.52 130.746 191.311 159.554 
49.4899 223.122 170.797 44.0249 212.539 165.405 56.9832 117.211 188.922 
88.3276 103.928 193.23 80.8425 211.115 204.732 50.4192 138.724 191.142 
41.0304 140.602 204.75 60.507 198.797 204.78 121.623 211.244 151.474 
25.7292 185.589 185.93 45.2429 94.1729 192.866 142.944 166.103 175.65 
138.51 150.734 166.381 132.091 144.216 180.325 39.5973 214.348 204.808 
65.9807 144.055 204.83 71.552 136.912 196.018 61.4669 231.587 191.853 
64.7048 234.132 177.219 30.5606 153.534 204.84 64.6324 177.868 204.799 
72.2487 170.085 193.025 78.3316 181.151 204.832 122.396 147.289 204.73 
161.035 152.697 188.833 143.368 147.034 204.852 155.005 140.369 204.797 
61.3149 129.822 194.577 71.4516 127.912 204.744 54.3352 136.334 204.78 
39.3407 139.378 184.73 43.4098 192.947 172.562 141.056 167.473 162.477 
128.574 163.331 160.024 98.5584 113.359 204.735 113.09 217.225 163.437 
134.313 200.279 178.303 56.8136 206.64 152.28 52.707 219.193 156.755 
80.5555 75.6026 192.943 69.9408 81.8701 197.845 81.9985 86.4584 204.715 
27.7017 198.748 191.038 28.6951 129.435 204.782 124.998 207.016 189.678 
102.313 225.187 166.67 95.1646 219.612 145.236 146.135 142.669 184.326 
137.139 130.987 191.254 33.515 133.325 175.051 99.0929 156.818 189.575 
138.385 178.113 153.984 101.854 227.422 204.788 31.847 172.939 173.251 
35.0347 188.709 163.256 23.6991 192.925 172.645 71.3351 221.252 133.568 
64.0794 212.062 140.354 142.796 176.146 204.8 136.009 187.918 200.702 
133.348 180.953 188.625 89.3291 93.8572 185.797 82.6975 84.9506 176.782 
93.3926 72.7666 188.045 67.7966 118.007 194.436 109.505 143.025 191.196 
33.44 163.574 181.296 81.9085 227.933 143.196 27.191 195.135 204.815 
145.445 131.236 204.85 69.1274 97.1071 204.825 45.0595 211.216 150.383 
111.884 175.182 204.739 124.041 207.293 176.272 34.9687 107.55 163.788 
45.5644 112.635 174.312 44.3555 97.4634 173.287 45.4235 102.754 158.946 
96.2289 100.2 204.845 71.7108 165.688 204.735 100.831 103.008 192.528 
109.686 110.083 199.248 85.8588 214.083 137.902 152.822 152.954 175.234 
116.71 135.604 204.829 109.922 148.658 204.721 103.879 137.658 204.699 
122.152 185.095 204.793 116.73 226.687 192.436 28.3971 209.297 204.817 
71.0715 80.7942 184.003 121.762 136.57 192.34 30.5625 114.996 172.782 
39.6096 123.091 172.704 48.934 90.6039 204.795 26.3518 141.738 204.784 
130.806 194.759 190.197 130.779 200.822 203.453 89.0444 128.164 197.538 
84.8218 139.372 204.836 37.8555 99.2593 204.791 74.3164 231.317 204.869 
76.2341 69.9782 175 69.8124 240.104 187.874 102.482 88.3877 204.809 
95.2844 74.7026 204.79 98.271 85.1799 191.957 85.6567 239.785 204.853 
81.0084 244.05 192.782 123.881 217.968 199.562 58.5262 89.1166 165.288 
81.2645 68.1817 204.828 158.144 136.93 190.53 25.0701 179.292 163.229 
108.225 98.1683 200.726 79.7582 154.998 204.858 61.322 238.878 204.769 
48.3384 222.983 204.788 61.4854 77.2892 190.501 
CELLS 564 2820
4 0 1 2 3 
4 4 5 6 7 
4 8 9 10 11 
4 12 13 14 15 
4 16 3 17 1 
4 5 18 6 7 
4 19 20 21 22 
4 23 24 25 26 
4 27 28 8 7 
4 29 30 31 22 
4 32 33 34 35 
4 36 19 32 33 
4 19 36 21 20 
4 37 38 39 6 
4 40 41 42 2 
4 43 44 45 46 
4 47 48 49 50 
4 51 7 52 53 
4 54 55 56 57 
4 58 59 60 61 
4 62 63 59 64 
4 65 66 37 67 
4 60 59 68 64 
4 69 70 71 72 
4 11 73 74 52 
4 8 54 9 11 
4 69 71 75 72 
4 76 77 78 79 
4 80 81 82 83 
4 84 85 86 87 
4 88 24 89 25 
4 90 91 92 55 
4 93 20 22 94 
4 95 96 97 98 
4 10 57 99 100 
4 101 102 50 103 
4 9 57 99 10 
4 50 44 102 101 
4 104 105 106 107 
4 108 109 110 98 
4 111 112 43 101 
4 94 47 49 50 
4 15 113 76 79 
4 86 77 87 78 
4 114 13 71 14 
4 37 38 115 39 
4 116 79 117 87 
4 6 18 53 7 
4 76 13 75 69 
4 118 44 50 66 
4 94 93 49 48 
4 39 55 115 37 
4 77 84 86 87 
4 8 9 98 10 
4 108 80 119 109 
4 101 112 44 102 
4 48 19 93 120 
4 108 110 97 98 
4 69 121 76 113 
4 59 64 60 61 
4 15 13 76 113 
4 122 123 124 58 
4 101 50 125 103 
4 126 42 127 30 
4 34 19 120 33 
4 34 33 120 35 
4 128 129 6 18 
4 19 130 21 36 
4 90 131 132 133 
4 104 68 134 64 
4 90 93 131 94 
4 135 106 136 137 
4 138 139 126 140 
4 26 117 141 130 
4 102 120 142 48 
4 143 144 123 58 
4 12 114 145 14 
4 37 39 118 66 
4 1 3 56 133 
4 90 133 1 92 
4 98 146 108 80 
4 108 97 147 98 
4 19 36 20 33 
4 136 68 134 104 
4 43 148 112 149 
4 128 65 37 67 
4 150 151 152 71 
4 144 97 143 95 
4 48 120 49 153 
4 154 141 23 117 
4 9 99 155 10 
4 7 51 8 27 
4 92 16 9 56 
4 28 8 156 11 
4 156 51 82 157 
4 21 117 31 36 
4 92 133 56 55 
4 158 159 136 68 
4 104 106 136 107 
4 23 160 25 24 
4 66 44 50 101 
4 161 40 63 3 
4 26 24 25 89 
4 57 9 99 17 
4 144 143 162 95 
4 21 24 141 130 
4 163 74 11 73 
4 164 165 166 142 
4 4 5 167 168 
4 169 64 170 171 
4 44 43 39 6 
4 53 28 38 6 
4 0 3 16 1 
4 101 128 6 18 
4 172 173 174 150 
4 154 87 141 117 
4 15 138 139 175 
4 22 20 131 94 
4 10 99 155 100 
4 56 9 57 17 
4 59 161 176 63 
4 116 138 140 79 
4 116 140 117 79 
4 48 142 102 47 
4 54 115 57 11 
4 164 88 177 89 
4 101 128 37 39 
4 21 126 116 30 
4 4 5 7 178 
4 39 128 37 6 
4 76 121 69 75 
4 35 49 120 179 
4 142 44 102 47 
4 158 180 137 136 
4 181 71 152 151 
4 43 101 39 6 
4 130 36 32 33 
4 9 16 96 17 
4 62 161 59 63 
4 45 44 142 46 
4 69 77 121 113 
4 23 141 160 24 
4 91 133 92 55 
4 26 24 89 177 
4 65 101 37 66 
4 46 148 182 112 
4 62 96 183 171 
4 164 177 34 89 
4 98 10 184 146 
4 185 186 187 188 
4 189 114 14 145 
4 48 33 49 120 
4 56 16 9 17 
4 48 93 33 120 
4 132 22 190 131 
4 87 79 117 154 
4 60 64 171 61 
4 154 78 86 79 
4 39 90 92 55 
4 191 189 192 145 
4 138 175 15 79 
4 43 149 111 18 
4 122 58 60 61 
4 128 38 37 6 
4 40 41 2 161 
4 92 133 1 56 
4 32 26 89 177 
4 4 178 157 193 
4 92 16 56 1 
4 78 77 87 79 
4 175 113 15 79 
4 123 158 194 124 
4 132 131 190 133 
4 101 50 66 125 
4 195 176 196 134 
4 54 92 56 55 
4 9 54 57 11 
4 54 55 57 115 
4 13 69 76 113 
4 197 41 40 196 
4 52 73 74 38 
4 183 198 64 171 
4 56 16 17 1 
4 122 158 107 124 
4 100 199 11 163 
4 122 61 60 97 
4 172 173 150 71 
4 182 148 149 112 
4 21 20 31 22 
4 59 63 134 64 
4 15 13 14 181 
4 122 123 194 124 
4 80 146 108 119 
4 107 106 136 135 
4 164 142 166 48 
4 59 176 196 63 
4 97 144 122 61 
4 153 200 50 103 
4 150 173 201 71 
4 57 73 163 11 
4 59 176 134 196 
4 59 196 134 63 
4 31 22 30 21 
4 184 9 155 10 
4 47 91 90 39 
4 49 153 179 50 
4 49 48 153 50 
4 49 120 179 153 
4 54 9 57 56 
4 98 9 184 10 
4 59 134 68 64 
4 44 118 47 39 
4 4 178 7 157 
4 51 178 157 7 
4 15 175 139 12 
4 8 146 98 80 
4 139 138 15 79 
4 142 120 166 48 
4 45 166 165 142 
4 107 68 136 104 
4 107 158 136 68 
4 39 38 115 6 
4 202 59 176 134 
4 110 95 97 98 
4 57 163 100 11 
4 21 117 36 130 
4 190 30 22 132 
4 144 61 97 95 
4 84 203 85 204 
4 172 150 152 71 
4 86 78 87 79 
4 76 113 77 79 
4 69 186 77 113 
4 39 55 54 115 
4 96 16 183 17 
4 100 10 11 199 
4 10 57 100 11 
4 146 8 98 10 
4 135 137 136 158 
4 28 6 53 7 
4 121 77 76 113 
4 60 61 171 97 
4 183 96 198 171 
4 23 87 86 85 
4 122 143 123 58 
4 1 190 3 133 
4 122 144 143 58 
4 170 64 198 171 
4 94 48 49 47 
4 114 71 152 14 
4 156 7 52 51 
4 18 111 43 101 
4 76 121 75 205 
4 130 19 32 36 
4 98 80 108 109 
4 80 82 119 83 
4 1 2 3 190 
4 61 96 62 171 
4 62 183 64 171 
4 79 138 87 116 
4 90 22 132 131 
4 23 141 24 26 
4 23 206 141 26 
4 154 141 86 23 
4 98 9 96 155 
4 99 9 155 96 
4 113 175 15 13 
4 96 183 198 17 
4 21 36 31 20 
4 99 207 208 198 
4 207 170 208 198 
4 99 207 198 17 
4 207 96 198 17 
4 101 128 39 6 
4 79 113 77 87 
4 108 110 147 97 
4 90 133 92 91 
4 35 33 120 49 
4 128 101 37 65 
4 115 73 57 11 
4 11 54 115 52 
4 209 127 139 210 
4 76 13 181 75 
4 76 13 15 181 
4 97 61 171 96 
4 164 165 142 48 
4 206 117 141 26 
4 10 9 57 11 
4 76 77 211 78 
4 47 93 90 94 
4 129 18 128 101 
4 39 91 90 55 
4 47 118 91 39 
4 38 212 128 37 
4 38 73 212 37 
4 38 73 74 212 
4 197 210 40 41 
4 40 210 42 41 
4 197 209 210 41 
4 22 31 29 20 
4 190 30 29 22 
4 130 26 32 19 
4 130 24 26 19 
4 71 201 75 72 
4 39 115 54 6 
4 79 113 87 138 
4 103 50 125 200 
4 55 39 118 37 
4 93 22 131 94 
4 97 207 147 98 
4 132 190 2 1 
4 154 86 87 79 
4 49 93 33 48 
4 164 166 120 48 
4 1 3 17 56 
4 23 85 160 141 
4 150 201 173 213 
4 84 186 203 204 
4 115 38 54 6 
4 52 115 73 38 
4 38 37 115 73 
4 52 54 115 38 
4 26 141 24 130 
4 189 191 114 145 
4 48 120 153 102 
4 148 43 112 46 
4 5 43 18 149 
4 5 43 6 18 
4 43 101 6 18 
4 5 148 43 149 
4 143 97 162 95 
4 38 212 214 128 
4 215 216 152 217 
4 216 152 217 150 
4 61 62 64 171 
4 32 19 34 33 
4 122 144 58 61 
4 77 84 69 121 
4 39 118 91 55 
4 42 127 210 126 
4 189 172 114 191 
4 189 114 152 14 
4 74 212 218 219 
4 122 194 158 124 
4 22 29 190 131 
4 107 135 136 158 
4 107 135 158 194 
4 122 194 107 158 
4 159 180 158 136 
4 54 92 9 56 
4 220 100 199 10 
4 87 116 141 117 
4 21 116 117 141 
4 206 117 26 130 
4 21 141 117 130 
4 107 158 68 124 
4 58 59 124 68 
4 202 59 68 124 
4 202 59 134 68 
4 161 2 40 3 
4 8 156 82 157 
4 8 156 146 82 
4 99 9 96 17 
4 61 62 59 64 
4 95 61 97 96 
4 38 212 74 219 
4 84 187 69 121 
4 69 121 72 75 
4 69 187 221 72 
4 8 51 156 157 
4 8 7 156 51 
4 88 24 177 89 
4 102 153 50 103 
4 50 48 153 102 
4 153 179 50 200 
4 155 100 220 10 
4 116 126 140 138 
4 143 144 122 97 
4 14 13 71 181 
4 75 13 181 71 
4 75 13 71 69 
4 14 71 152 181 
4 216 152 150 222 
4 116 126 31 140 
4 62 16 183 96 
4 183 63 62 64 
4 11 115 73 52 
4 31 126 21 30 
4 31 126 116 21 
4 116 140 31 21 
4 21 140 31 117 
4 19 24 21 130 
4 116 140 21 117 
4 9 28 54 8 
4 8 54 11 28 
4 52 28 156 11 
4 28 53 52 7 
4 4 6 28 7 
4 28 54 11 52 
4 8 28 52 7 
4 28 54 38 6 
4 217 150 152 172 
4 174 150 217 172 
4 216 217 174 150 
4 60 169 171 64 
4 4 167 178 193 
4 132 190 1 133 
4 84 186 69 187 
4 146 8 10 156 
4 156 8 10 11 
4 8 7 52 156 
4 95 97 162 110 
4 158 180 223 137 
4 135 223 137 158 
4 161 0 2 3 
4 94 118 47 50 
4 118 44 47 50 
4 47 44 102 50 
4 48 47 102 50 
4 39 92 54 55 
4 164 165 224 166 
4 191 215 225 189 
4 74 73 163 218 
4 74 73 218 212 
4 75 71 181 151 
4 39 44 118 66 
4 99 96 207 17 
4 99 155 207 96 
4 98 96 207 155 
4 97 96 207 98 
4 97 171 207 96 
4 96 171 207 198 
4 207 171 170 198 
4 99 155 208 207 
4 27 51 8 157 
4 8 82 27 157 
4 27 82 81 157 
4 8 82 146 80 
4 80 146 119 82 
4 191 225 192 189 
4 93 19 22 20 
4 76 77 121 211 
4 4 28 27 7 
4 37 39 66 101 
4 39 44 66 101 
4 131 133 90 91 
4 3 2 226 190 
4 190 226 30 2 
4 2 42 40 226 
4 42 210 40 226 
4 3 2 40 226 
4 42 210 226 126 
4 226 42 126 30 
4 90 132 1 133 
4 215 217 152 189 
4 217 172 152 189 
4 217 172 189 191 
4 217 189 215 191 
4 161 3 63 0 
4 155 99 220 100 
4 155 99 208 220 
4 34 177 32 89 
4 150 201 151 71 
4 75 71 151 201 
4 102 120 166 142 
4 15 175 12 13 
4 128 38 6 53 
4 128 53 6 129 
4 128 38 53 129 
4 129 53 6 18 
4 48 177 34 164 
4 44 101 39 43 
4 43 112 44 101 
4 111 18 129 101 
4 43 149 112 111 
4 202 176 195 134 
4 52 28 38 53 
4 52 54 38 28 
4 52 8 156 28 
4 48 19 120 34 
4 48 34 120 164 
4 141 87 86 23 
4 48 93 47 94 
4 154 87 86 141 
4 195 176 197 196 
4 161 176 63 196 
4 161 196 63 40 
4 197 41 196 176 
4 176 41 196 161 
4 196 41 40 161 
4 22 20 29 131 
4 71 70 201 72 
4 184 207 147 155 
4 98 207 184 155 
4 98 9 155 184 
4 98 207 147 184 
4 98 184 147 108 
4 98 184 108 146 
4 38 129 128 214 
4 38 212 219 214 
4 77 84 87 113 
4 84 186 87 113 
4 77 186 84 113 
4 77 186 69 84 
4 93 19 33 120 
4 172 71 152 114 
4 189 172 152 114 
4 126 127 139 138 
4 154 117 23 206 
4 23 117 141 206 
4 190 2 30 132 
4 203 186 84 185 
4 185 186 84 187 
4 26 24 177 19 
4 32 26 177 19 
4 34 19 32 177 
4 48 19 34 177 
4 128 67 212 227 
4 128 37 212 67 
4 102 166 45 142 
4 85 87 160 141 
4 23 87 85 141 
4 90 22 131 93 
4 20 19 33 93 
4 49 20 33 93 
4 94 20 49 93 
4 0 3 63 183 
4 62 0 63 183 
4 62 0 183 16 
4 183 0 17 16 
4 0 3 17 16 
4 183 3 17 0 
4 161 0 63 62 
4 43 45 112 46 
4 43 44 112 45 
4 112 44 102 45 
4 45 44 102 142 
4 157 27 4 193 
4 4 7 27 157 
4 7 51 27 157 
4 27 80 81 82 
4 8 80 27 82 
4 65 66 67 228 
4 65 66 228 125 
4 101 66 65 125 
4 101 125 65 103 
4 60 68 104 64 
4 104 169 60 64 
4 107 169 60 104 
4 107 68 104 60 
4 60 124 107 68 
4 60 124 68 58 
4 58 59 68 60 
4 122 124 60 58 
4 122 124 107 60 
4 138 113 175 79 
4 85 87 204 160 
4 84 204 85 87 
4 84 186 204 87 
4 75 201 229 72 
4 75 201 151 229 
4 91 47 90 94 
4 94 131 90 91 
4 118 47 91 94 

CELL_TYPES 564
10
10
10
10
10
10
10
10
10
10
10
10
10
10
10
10
10
10
10
10
10
10
10
10
10
10
10
10
10
10
10
10
10
10
10
10
10
10
10
10
10
10
10
10
10
10
10
10
10
10
10
10
10
10
10
10
10
10
10
10
10
10
10
10
10
10
10
10
10
10
10
10
10
10
10
10
10
10
10
10
10
10
10
10
10
10
10
10
10
10
10
10
10
10
10
10
10
10
10
10
10
10
10
10
10
10
10
10
10
10
10
10
10
10
10
10
10
10
10
10
10
10
10
10
10
10
10
10
10
10
10
10
10
10
10
10
10
10
10
10
10
10
10
10
10
10
10
10
10
10
10
10
10
10
10
10
10
10
10
10
10
10
10
10
10
10
10
10
10
10
10
10
10
10
10
10
10
10
10
10
10
10
10
10
10
10
10
10
10
10
10
10
10
10
10
10
10
10
10
10
10
10
10
10
10
10
10
10
10
10
10
10
10
10
10
10
10
10
10
10
10
10
10
10
10
10
10
10
10
10
10
10
10
10
10
10
10
10
10
10
10
10
10
10
10
10
10
10
10
10
10
10
10
10
10
10
10
10
10
10
10
10
10
10
10
10
10
10
10
10
10
10
10
10
10
10
10
10
10
10
10
10
10
10
10
10
10
10
10
10
10
10
10
10
10
10
10
10
10
10
10
10
10
10
10
10
10
10
10
10
10
10
10
10
10
10
10
10
10
10
10
10
10
10
10
10
10
10
10
10
10
10
10
10
10
10
10
10
10
10
10
10
10
10
10
10
10
10
10
10
10
10
10
10
10
10
10
10
10
10
10
10
10
10
10
10
10
10
10
10
10
10
10
10
10
10
10
10
10
10
10
10
10
10
10
10
10
10
10
10
10
10
10
10
10
10
10
10
10
10
10
10
10
10
10
10
10
10
10
10
10
10
10
10
10
10
10
10
10
10
10
10
10
10
10
10
10
10
10
10
10
10
10
10
10
10
10
10
10
10
10
10
10
10
10
10
10
10
10
10
10
10
10
10
10
10
10
10
10
10
10
10
10
10
10
10
10
10
10
10
10
10
10
10
10
10
10
10
10
10
10
10
10
10
10
10
10
10
10
10
10
10
10
10
10
10
10
10
10
10
10
10
10
10
10
10
10
10
10
10
10
10
10
10
10
10
10
10
10
10
10
10
10
10
10
10
10
10
10
10
10
10
10
10
10
10
10
10
10
10
10
10
10
10
10
10
10
10
10
10
10
10
10
10
10
10
10
10
10
10
10
10
10
10

CELL_DATA 564
SCALARS Materials int
LOOKUP_TABLE default
193 193 193 193 193 193 193 193 193 
193 193 193 193 193 193 193 193 193 
193 193 193 193 193 193 193 193 193 
193 193 193 193 193 193 193 193 193 
193 193 193 193 193 193 193 193 193 
193 193 193 193 193 193 193 193 193 
193 193 193 193 193 193 193 193 193 
193 193 193 193 193 193 193 193 193 
193 193 193 193 193 193 193 193 193 
193 193 193 193 193 193 193 193 193 
193 193 193 193 193 193 193 193 193 
193 193 193 193 193 193 193 193 193 
193 193 193 193 193 193 193 193 193 
193 193 193 193 193 193 193 193 193 
193 193 193 193 193 193 193 193 193 
193 193 193 193 193 193 193 193 193 
193 193 193 193 193 193 193 193 193 
193 193 193 193 193 193 193 193 193 
193 193 193 193 193 193 193 193 193 
193 193 193 193 193 193 193 193 193 
193 193 193 193 193 193 193 193 193 
193 193 193 193 193 193 193 193 193 
193 193 193 193 193 193 193 193 193 
193 193 193 193 193 193 193 193 193 
193 193 193 193 193 193 193 193 193 
193 193 193 193 193 193 193 193 193 
193 193 193 193 193 193 193 193 193 
193 193 193 193 193 193 193 193 193 
193 193 193 193 193 193 193 193 193 
193 193 193 193 193 193 193 193 193 
193 193 193 193 193 193 193 193 193 
193 193 193 193 193 193 193 193 193 
193 193 193 193 193 193 193 193 193 
193 193 193 193 193 193 193 193 193 
193 193 193 193 193 193 193 193 193 
193 193 193 193 193 193 193 193 193 
193 193 193 193 193 193 193 193 193 
193 193 193 193 193 193 193 193 193 
193 193 193 193 193 193 193 193 193 
193 193 193 193 193 193 193 193 193 
193 193 193 193 193 193 193 193 193 
193 193 193 193 193 193 193 193 193 
193 193 193 193 193 193 193 193 193 
193 193 193 193 193 193 193 193 193 
193 193 193 193 193 193 193 193 193 
193 193 193 193 193 193 193 193 193 
193 193 193 193 193 193 193 193 193 
193 193 193 193 193 193 193 193 193 
193 193 193 193 193 193 193 193 193 
193 193 193 193 193 193 193 193 193 
193 193 193 193 193 193 193 193 193 
193 193 193 193 193 193 193 193 193 
193 193 193 193 193 193 193 193 193 
193 193 193 193 193 193 193 193 193 
193 193 193 193 193 193 193 193 193 
193 193 193 193 193 193 193 193 193 
193 193 193 193 193 193 193 193 193 
193 193 193 193 193 193 193 193 193 
193 193 193 193 193 193 193 193 193 
193 193 193 193 193 193 193 193 193 
193 193 193 193 193 193 193 193 193 
193 193 193 193 193 193 193 193 193 
193 193 193 193 193 193 
