# vtk DataFile Version 3.0
vtk output
ASCII
DATASET UNSTRUCTURED_GRID
POINTS 91 float
151.524 147.431 128.29 151.672 129.151 113.087 153.631 128.532 127.814 
143.353 138.251 115.767 164.83 138.78 131.808 167.605 150.842 122.155 
168.525 155.965 137.521 162.743 162.695 127.246 152.886 161.778 138.3 
171.355 134.509 121.201 169.305 123.712 128.794 172.929 162.096 192.026 
166.69 147.518 198.133 172.772 167.363 204.765 158.414 153.144 204.852 
152.694 148.206 111.525 162.777 134.843 111.219 125.515 118.455 133.644 
127.751 103.952 132.124 123.896 106.693 118.15 141.447 109.618 122.333 
160.369 137.019 76.4647 141.688 132.869 78.0708 147.088 143.359 65.546 
150.928 125.251 73.9218 153.621 126.736 86.2168 163.691 146.532 155.998 
170.612 159.229 152.24 153.114 150.855 146.054 133.535 129.963 63.1986 
143.207 128.439 54.0733 153.481 124.232 61.5497 154.341 130.774 100.862 
141.761 133.13 95.276 148.566 141.175 102.675 151.063 141.366 87.1691 
163.931 130.483 65.8944 159.3 151.094 99.1801 164.004 136.602 92.6376 
172.109 149.644 163.967 153.591 152.058 159.389 164.979 148.478 174.733 
166.168 170.917 161.113 173.637 165.872 172.451 151.253 167.564 153.817 
157.419 162.718 164.743 156.907 133.599 52.5845 146.828 138.172 45.0121 
146.145 124.548 39.089 177.161 125.602 143.098 154.892 130.757 140.338 
159.608 169.338 204.789 169.507 142.39 146.351 159.392 122.292 148.792 
159.713 167.238 176.199 172.243 156.025 181.287 171.794 175.55 184.431 
152.116 146.759 76.0676 152.822 152.954 175.234 148.391 164.271 192.35 
161.035 152.697 188.833 133.035 127.599 45.4143 160.489 171.88 191.318 
132.379 115.321 112.427 157.151 126.096 29.208 144.446 125.696 25.3497 
143.949 137.978 30.5655 104.206 143.249 60.4623 111.426 155.647 64.6534 
104.737 149.986 73.1771 109.755 139.74 77.566 173.753 125.066 81.6483 
164.198 118.425 71.5976 174.02 123.948 61.1357 127.354 132.423 82.0901 
126.173 144.544 73.5178 119.947 145.677 91.7726 133.558 144.739 88.9308 
159.425 114.244 115.324 152.186 103.945 118.044 157.612 114.028 130.492 
164.448 120.678 97.2388 170.02 130.814 101.901 172.291 151.765 110.153 
155.376 137.987 24.0496 123.015 138.425 61.5609 171.332 164.068 118.096 
183.019 149.808 115.946 189.168 165.197 117.539 176.833 157.754 127.863 
138.099 139.312 53.2307 
CELLS 106 530
4 0 1 2 3 
4 4 5 0 6 
4 6 7 0 8 
4 4 9 10 2 
4 11 12 13 14 
4 5 15 16 0 
4 17 18 19 20 
4 21 22 23 24 
4 21 24 25 22 
4 26 27 6 28 
4 23 29 30 31 
4 32 33 34 35 
4 24 23 36 31 
4 22 29 23 24 
4 37 38 34 35 
4 26 39 40 41 
4 39 27 42 43 
4 27 44 28 40 
4 27 39 45 26 
4 45 39 43 41 
4 46 30 47 48 
4 10 49 4 50 
4 11 13 51 14 
4 2 10 4 50 
4 50 49 52 53 
4 54 55 56 11 
4 21 23 22 57 
4 45 39 41 40 
4 52 26 6 28 
4 58 54 59 60 
4 21 23 36 24 
4 48 30 47 61 
4 3 15 16 1 
4 5 16 9 4 
4 42 43 45 39 
4 27 39 42 45 
4 54 41 60 58 
4 54 62 59 60 
4 0 15 16 3 
4 54 41 58 45 
4 20 19 17 63 
4 64 65 48 66 
4 35 25 38 32 
4 36 23 46 31 
4 67 68 69 70 
4 4 49 52 50 
4 45 41 58 40 
4 6 27 8 28 
4 59 62 51 60 
4 62 11 51 60 
4 36 71 72 73 
4 35 25 32 33 
4 54 45 43 41 
4 27 45 44 40 
4 59 51 14 60 
4 6 5 0 7 
4 0 16 1 3 
4 60 11 51 14 
4 26 39 45 40 
4 74 75 76 77 
4 4 16 2 0 
4 5 16 4 0 
4 52 27 6 26 
4 78 79 80 20 
4 64 48 47 66 
4 21 22 25 35 
4 35 22 25 33 
4 21 25 38 35 
4 60 12 11 14 
4 62 11 13 51 
4 0 16 2 1 
4 71 81 82 38 
4 34 38 32 35 
4 5 83 16 15 
4 83 37 16 15 
4 37 38 16 32 
4 84 65 64 66 
4 24 29 23 31 
4 54 11 62 60 
4 54 56 62 11 
4 67 68 70 85 
4 85 68 70 75 
4 6 0 28 8 
4 28 4 0 6 
4 52 4 28 6 
4 23 30 46 31 
4 86 87 88 89 
4 10 49 50 53 
4 42 43 54 45 
4 38 82 16 32 
4 54 55 11 60 
4 41 55 39 43 
4 54 43 55 41 
4 54 55 60 41 
4 54 43 56 55 
4 26 27 28 40 
4 27 26 45 40 
4 21 57 22 35 
4 90 30 47 46 
4 23 30 90 46 
4 3 15 1 34 
4 1 15 16 34 
4 37 34 16 15 
4 37 32 16 34 
4 1 34 16 32 
4 37 38 32 34 

CELL_TYPES 106
10
10
10
10
10
10
10
10
10
10
10
10
10
10
10
10
10
10
10
10
10
10
10
10
10
10
10
10
10
10
10
10
10
10
10
10
10
10
10
10
10
10
10
10
10
10
10
10
10
10
10
10
10
10
10
10
10
10
10
10
10
10
10
10
10
10
10
10
10
10
10
10
10
10
10
10
10
10
10
10
10
10
10
10
10
10
10
10
10
10
10
10
10
10
10
10
10
10
10
10
10
10
10
10
10
10

CELL_DATA 106
SCALARS Materials int
LOOKUP_TABLE default
453 453 453 453 453 453 453 453 453 
453 453 453 453 453 453 453 453 453 
453 453 453 453 453 453 453 453 453 
453 453 453 453 453 453 453 453 453 
453 453 453 453 453 453 453 453 453 
453 453 453 453 453 453 453 453 453 
453 453 453 453 453 453 453 453 453 
453 453 453 453 453 453 453 453 453 
453 453 453 453 453 453 453 453 453 
453 453 453 453 453 453 453 453 453 
453 453 453 453 453 453 453 453 453 
453 453 453 453 453 453 453 
