# vtk DataFile Version 3.0
vtk output
ASCII
DATASET UNSTRUCTURED_GRID
POINTS 99 float
54.8831 98.249 105.505 70.1678 95.6756 116.109 65.2952 86.4986 97.274 
68.777 107.156 112.64 102.506 91.9825 126.754 84.6876 70.1746 106.586 
101.564 75.9866 127.176 78.5559 73.9748 118.985 57.9998 97.0153 92.1201 
69.6119 113.029 95.6666 79.0406 97.7606 124.027 90.9712 96.618 129.66 
75.1333 85.3973 124.077 105.388 183.207 129.787 93.2233 189.053 130.692 
92.6724 188.152 116.344 102.214 177.503 117.939 108.598 101.574 114.832 
96.2586 109.717 95.6696 108.819 114.269 100.008 110.474 101.929 93.5605 
69.3359 78.9996 108.997 55.8381 112.415 101.169 107.255 195.776 120.125 
111.125 188.443 110.498 99.9648 198.919 110.19 76.8887 114.334 105.999 
128.697 127.424 174.87 124.347 114.251 163.434 124.96 113.916 186.131 
111.97 115.949 175.153 63.0222 86.5926 119.603 121.762 136.57 192.34 
126.246 126.775 204.801 112.721 121.903 195.28 93.2049 107.759 123.841 
86.8311 85.9716 83.9871 79.0248 75.6138 94.5818 98.2707 95.2002 92.0145 
69.5217 86.4085 80.0589 88.9563 68.0931 127.193 87.3735 85.7161 135.245 
86.0813 109.16 86.0046 102.218 113.146 111.797 120.632 98.0158 102.397 
92.601 199.056 123.956 72.5252 101.804 82.344 116.748 126.838 172.002 
54.5983 84.2703 108.329 115.962 77.8778 120.39 98.6153 63.3557 117.758 
104.264 61.8375 106.368 112.236 60.0496 115.767 81.9696 108.523 117.476 
123.923 86.5566 98.3827 116.137 89.8292 112.94 116.586 81.5097 89.497 
150.696 64.9727 143.894 158.636 67.5614 157.307 164.531 65.7879 146.566 
153.013 77.7335 143.165 110.536 131.847 181.364 121.105 138.224 178.806 
109.505 143.025 191.196 143.353 80.7504 151.31 162.07 83.3882 150.564 
89.3457 70.9363 88.7351 145.874 66.4514 155.77 137.139 130.987 191.254 
104.005 84.716 85.6403 140.268 91.4635 176.756 130.801 94.7504 192.797 
123.32 83.1094 186.431 137.076 82.5883 189.44 118.262 76.8542 107.675 
150.962 80.1974 189.243 159.461 90.3324 189.609 145.757 93.7966 192.785 
95.275 65.0574 98.3717 89.3484 112.428 107.594 99.0376 73.1082 80.7395 
132.091 144.216 180.325 105.088 194.768 136.804 116.554 192.578 128.171 
102.474 205.254 127.108 114.71 62.3969 133.78 117.747 118.205 111.15 
84.8653 96.5797 71.1779 92.9467 96.341 80.688 137.738 115.969 194.393 
101.47 64.6817 134.469 119.937 69.3633 91.1564 151.391 90.31 146.943 
107.93 65.3241 90.1384 115.827 65.0111 103.005 100.027 106.535 82.0136 
118.557 179.999 120.345 143.224 73.4716 181.382 58.9534 111.118 88.7982 

CELLS 174 870
4 0 1 2 3 
4 4 5 6 7 
4 8 3 2 9 
4 10 4 11 12 
4 13 14 15 16 
4 17 18 19 20 
4 21 7 5 12 
4 9 0 3 22 
4 23 24 15 25 
4 2 9 3 26 
4 27 28 29 30 
4 31 12 21 1 
4 32 29 33 34 
4 11 17 35 4 
4 36 37 38 2 
4 37 1 38 2 
4 39 37 36 2 
4 40 7 41 6 
4 36 2 38 42 
4 4 10 5 7 
4 17 43 19 18 
4 0 3 2 8 
4 17 19 44 20 
4 45 23 14 15 
4 39 2 36 46 
4 27 30 29 47 
4 2 8 9 46 
4 47 28 27 30 
4 2 48 21 1 
4 10 17 35 11 
4 49 50 51 52 
4 12 4 11 7 
4 1 53 26 3 
4 44 54 55 56 
4 57 58 59 60 
4 61 62 63 32 
4 4 55 49 6 
4 39 2 46 8 
4 58 64 65 60 
4 38 37 66 5 
4 10 53 35 17 
4 55 44 56 20 
4 58 67 60 57 
4 41 7 11 6 
4 68 29 33 32 
4 0 3 8 9 
4 41 11 4 6 
4 55 56 69 38 
4 70 71 72 73 
4 6 55 49 74 
4 70 75 76 77 
4 37 21 1 2 
4 17 44 55 20 
4 5 38 74 78 
4 10 17 11 4 
4 13 23 24 16 
4 42 38 18 79 
4 4 17 38 10 
4 55 20 56 38 
4 61 63 34 32 
4 69 80 66 36 
4 81 62 68 32 
4 70 73 75 77 
4 70 71 73 77 
4 61 30 29 34 
4 12 11 41 7 
4 6 5 40 7 
4 27 29 68 32 
4 55 69 74 38 
4 82 83 23 84 
4 6 52 49 85 
4 81 27 68 62 
4 27 47 29 61 
4 11 7 4 6 
4 53 79 35 17 
4 19 17 86 43 
4 17 79 43 18 
4 17 79 35 43 
4 87 46 88 42 
4 29 89 68 33 
4 17 79 38 10 
4 69 56 20 38 
4 38 69 66 36 
4 6 5 55 74 
4 6 50 52 90 
4 23 15 24 16 
4 10 11 41 12 
4 26 2 38 1 
4 62 27 32 61 
4 46 2 36 42 
4 27 29 32 61 
4 32 29 34 61 
4 17 79 18 38 
4 62 27 68 32 
4 74 54 91 56 
4 17 18 20 38 
4 6 74 49 50 
4 6 74 50 5 
4 38 36 66 37 
4 12 7 5 10 
4 5 38 55 74 
4 10 4 12 7 
4 47 30 29 61 
4 55 56 74 69 
4 20 54 44 56 
4 54 74 55 56 
4 60 65 92 64 
4 53 10 38 79 
4 10 79 53 17 
4 45 23 15 25 
4 2 26 3 1 
4 62 27 61 47 
4 74 56 93 69 
4 74 69 78 38 
4 78 74 93 69 
4 4 10 38 5 
4 0 22 9 8 
4 6 5 50 40 
4 51 74 94 93 
4 17 20 55 38 
4 6 50 49 52 
4 4 55 6 5 
4 4 38 55 5 
4 4 17 55 38 
4 1 53 38 79 
4 95 38 18 42 
4 78 74 51 93 
4 49 51 74 52 
4 1 10 38 53 
4 96 16 13 24 
4 78 69 93 80 
4 6 90 52 85 
4 70 73 97 75 
4 88 46 36 42 
4 74 56 94 93 
4 58 64 60 67 
4 21 12 5 1 
4 46 8 9 98 
4 8 22 9 98 
4 38 66 78 5 
4 38 69 78 66 
4 69 80 78 66 
4 80 66 93 78 
4 95 88 38 42 
4 88 36 38 42 
4 74 91 94 56 
4 91 93 94 56 
4 13 15 23 16 
4 23 13 14 15 
4 26 1 38 79 
4 79 53 26 1 
4 82 13 14 23 
4 82 83 13 23 
4 96 13 83 23 
4 96 13 23 24 
4 42 26 38 79 
4 46 26 42 9 
4 46 2 26 9 
4 46 2 42 26 
4 42 2 38 26 
4 87 46 36 88 
4 51 78 50 5 
4 74 51 94 52 
4 60 58 59 65 
4 74 51 50 5 
4 74 78 51 5 
4 49 50 74 51 
4 82 23 45 84 
4 82 23 14 45 
4 1 12 5 10 
4 5 10 38 1 
4 37 5 38 1 
4 37 5 1 21 
4 2 0 48 1 

CELL_TYPES 174
10
10
10
10
10
10
10
10
10
10
10
10
10
10
10
10
10
10
10
10
10
10
10
10
10
10
10
10
10
10
10
10
10
10
10
10
10
10
10
10
10
10
10
10
10
10
10
10
10
10
10
10
10
10
10
10
10
10
10
10
10
10
10
10
10
10
10
10
10
10
10
10
10
10
10
10
10
10
10
10
10
10
10
10
10
10
10
10
10
10
10
10
10
10
10
10
10
10
10
10
10
10
10
10
10
10
10
10
10
10
10
10
10
10
10
10
10
10
10
10
10
10
10
10
10
10
10
10
10
10
10
10
10
10
10
10
10
10
10
10
10
10
10
10
10
10
10
10
10
10
10
10
10
10
10
10
10
10
10
10
10
10
10
10
10
10
10
10
10
10
10
10
10
10

CELL_DATA 174
SCALARS Materials int
LOOKUP_TABLE default
449 449 449 449 449 449 449 449 449 
449 449 449 449 449 449 449 449 449 
449 449 449 449 449 449 449 449 449 
449 449 449 449 449 449 449 449 449 
449 449 449 449 449 449 449 449 449 
449 449 449 449 449 449 449 449 449 
449 449 449 449 449 449 449 449 449 
449 449 449 449 449 449 449 449 449 
449 449 449 449 449 449 449 449 449 
449 449 449 449 449 449 449 449 449 
449 449 449 449 449 449 449 449 449 
449 449 449 449 449 449 449 449 449 
449 449 449 449 449 449 449 449 449 
449 449 449 449 449 449 449 449 449 
449 449 449 449 449 449 449 449 449 
449 449 449 449 449 449 449 449 449 
449 449 449 449 449 449 449 449 449 
449 449 449 449 449 449 449 449 449 
449 449 449 449 449 449 449 449 449 
449 449 449 
