# vtk DataFile Version 3.0
vtk output
ASCII
DATASET UNSTRUCTURED_GRID
POINTS 67 float
118.295 132.325 36.4216 104.203 134.608 39.2042 112.631 145.167 28.1686 
119.382 132.138 23.8098 94.0521 118.589 44.1024 78.2626 125.901 47.513 
93.3329 128.174 64.7155 94.8677 136.544 50.1881 94.7766 117.32 8.81677 
83.5094 132.182 -0.0146692 78.6118 122.576 15.383 104.396 134.52 7.21977 
80.605 137.675 58.4262 81.7218 116.81 57.2747 84.1453 161.454 43.9504 
83.1086 181.138 46.9916 94.0125 178.681 56.5273 88.6294 172.852 37.102 
77.4185 142.516 12.013 92.2655 149.196 12.0285 77.1834 166.465 63.2166 
80.6578 178.314 62.6408 68.9242 170.456 54.9304 67.4886 132.794 34.5995 
74.6459 122.881 34.5628 104.741 125.042 51.3639 70.4558 177.277 43.0167 
60.2125 148.089 48.6191 64.3503 145.648 34.0339 63.1401 160.623 39.1765 
68.2189 157.793 51.9788 111.959 117.159 41.6492 94.7992 153.319 55.2259 
101.606 167.631 47.7668 103.708 171.126 64.5755 110.867 158.722 51.6098 
102.458 153.055 25.5918 85.7115 157.585 18.3991 104.737 149.986 73.1771 
96.7512 158.172 77.4972 93.941 143.769 71.0302 69.8428 136.697 45.9448 
104.741 112.014 28.5353 117.658 126.014 12.8642 117.634 113.799 19.5281 
105.399 145.616 15.985 111.426 155.647 64.6534 89.042 113.676 27.385 
122.207 119.326 31.9054 77.6783 153.846 60.0103 67.5115 135.101 22.5924 
73.6158 156.494 20.9328 75.9089 172.706 31.177 108.064 116.186 10.4117 
104.023 158.587 36.6923 107.879 147.399 45.072 104.206 143.249 60.4623 
111.804 130.793 62.5729 93.4706 161.592 27.211 67.0826 164.475 27.9718 
114.145 122.08 -0.0122985 101.358 124.186 0.0158307 84.1017 118.335 0.0358143 
123.381 138.668 13.7286 94.3438 141.073 -0.0233116 85.5642 159.973 69.5735 
89.6131 172.225 74.5403 
CELLS 162 810
4 0 1 2 3 
4 4 5 6 7 
4 8 9 10 11 
4 6 12 5 13 
4 14 15 16 17 
4 10 18 19 11 
4 15 20 21 22 
4 7 5 23 24 
4 25 4 7 1 
4 6 12 7 5 
4 26 14 15 22 
4 27 28 29 30 
4 25 0 31 1 
4 32 33 34 35 
4 29 14 26 30 
4 36 18 37 19 
4 32 38 39 40 
4 7 12 41 5 
4 3 42 43 44 
4 7 4 24 1 
4 4 13 6 5 
4 1 45 36 2 
4 30 20 14 22 
4 18 9 19 11 
4 32 35 34 46 
4 47 8 10 11 
4 7 4 5 24 
4 30 14 26 22 
4 10 9 18 11 
4 29 30 26 22 
4 31 42 0 48 
4 32 14 20 16 
4 49 14 20 32 
4 48 42 0 3 
4 12 32 49 40 
4 8 47 42 11 
4 37 23 50 18 
4 28 51 29 14 
4 32 46 39 38 
4 52 17 15 26 
4 47 45 1 11 
4 53 42 43 3 
4 1 10 19 45 
4 1 54 55 36 
4 56 25 57 6 
4 20 15 21 16 
4 7 54 14 32 
4 58 14 52 51 
4 30 49 14 20 
4 52 17 26 14 
4 32 54 14 33 
4 7 1 23 37 
4 14 29 59 51 
4 47 10 1 45 
4 53 42 3 11 
4 29 14 52 26 
4 4 6 25 7 
4 60 61 53 11 
4 7 55 54 32 
4 8 62 10 9 
4 60 53 43 11 
4 24 10 50 18 
4 56 7 25 6 
4 1 36 55 2 
4 58 51 52 37 
4 32 35 54 33 
4 47 10 45 11 
4 23 24 50 18 
4 63 43 3 11 
4 63 3 45 11 
4 3 1 45 11 
4 14 29 52 59 
4 14 59 52 51 
4 29 52 59 26 
4 12 14 49 32 
4 12 41 49 14 
4 41 28 30 14 
4 41 30 49 14 
4 32 14 16 33 
4 32 16 34 33 
4 28 51 59 29 
4 36 54 55 2 
4 12 6 7 40 
4 7 32 12 40 
4 7 14 12 32 
4 7 41 12 14 
4 0 42 1 3 
4 3 42 1 11 
4 2 1 45 3 
4 19 18 64 9 
4 28 50 51 23 
4 32 46 34 39 
4 52 58 17 14 
4 23 28 14 37 
4 45 10 19 11 
4 23 50 51 37 
4 28 23 51 37 
4 30 28 29 14 
4 61 8 53 11 
4 8 61 9 11 
4 61 64 9 11 
4 31 42 4 1 
4 31 42 1 0 
4 24 47 10 1 
4 1 4 24 47 
4 1 24 23 18 
4 42 47 4 1 
4 42 47 1 11 
4 7 24 23 1 
4 7 5 41 23 
4 14 17 16 33 
4 54 58 14 17 
4 54 17 14 33 
4 56 7 40 32 
4 40 7 56 6 
4 31 4 25 1 
4 56 32 38 46 
4 55 2 0 1 
4 1 10 18 19 
4 24 10 18 1 
4 7 54 55 1 
4 8 42 53 11 
4 53 3 43 11 
4 26 17 15 14 
4 19 9 64 11 
4 37 1 23 18 
4 7 23 14 37 
4 32 20 65 16 
4 66 21 65 20 
4 15 14 20 22 
4 14 15 20 16 
4 65 20 21 16 
4 65 21 66 16 
4 65 16 66 34 
4 65 34 66 39 
4 32 34 65 39 
4 65 32 39 40 
4 49 32 65 40 
4 32 16 65 34 
4 41 28 27 30 
4 53 42 44 43 
4 7 36 54 1 
4 49 20 65 32 
4 56 32 46 35 
4 56 32 35 55 
4 32 55 54 35 
4 48 42 3 44 
4 37 51 14 58 
4 7 37 14 58 
4 36 58 14 54 
4 7 36 14 54 
4 7 58 14 36 
4 1 19 36 45 
4 1 18 36 19 
4 7 36 37 58 
4 36 1 37 18 
4 37 50 51 18 
4 28 51 14 37 
4 7 1 37 36 
4 23 41 14 28 
4 7 41 14 23 
4 56 32 40 38 

CELL_TYPES 162
10
10
10
10
10
10
10
10
10
10
10
10
10
10
10
10
10
10
10
10
10
10
10
10
10
10
10
10
10
10
10
10
10
10
10
10
10
10
10
10
10
10
10
10
10
10
10
10
10
10
10
10
10
10
10
10
10
10
10
10
10
10
10
10
10
10
10
10
10
10
10
10
10
10
10
10
10
10
10
10
10
10
10
10
10
10
10
10
10
10
10
10
10
10
10
10
10
10
10
10
10
10
10
10
10
10
10
10
10
10
10
10
10
10
10
10
10
10
10
10
10
10
10
10
10
10
10
10
10
10
10
10
10
10
10
10
10
10
10
10
10
10
10
10
10
10
10
10
10
10
10
10
10
10
10
10
10
10
10
10
10
10

CELL_DATA 162
SCALARS Materials int
LOOKUP_TABLE default
129 129 129 129 129 129 129 129 129 
129 129 129 129 129 129 129 129 129 
129 129 129 129 129 129 129 129 129 
129 129 129 129 129 129 129 129 129 
129 129 129 129 129 129 129 129 129 
129 129 129 129 129 129 129 129 129 
129 129 129 129 129 129 129 129 129 
129 129 129 129 129 129 129 129 129 
129 129 129 129 129 129 129 129 129 
129 129 129 129 129 129 129 129 129 
129 129 129 129 129 129 129 129 129 
129 129 129 129 129 129 129 129 129 
129 129 129 129 129 129 129 129 129 
129 129 129 129 129 129 129 129 129 
129 129 129 129 129 129 129 129 129 
129 129 129 129 129 129 129 129 129 
129 129 129 129 129 129 129 129 129 
129 129 129 129 129 129 129 129 129 

