# vtk DataFile Version 3.0
vtk output
ASCII
DATASET UNSTRUCTURED_GRID
POINTS 468 float
28.1455 164.859 132.782 51.8493 173.1 151.17 32.5444 178.231 134.634 
27.2322 169.187 144.918 151.03 107.772 194.451 158.571 111.84 178.416 
152.503 122.188 193.795 165.596 115.129 191.854 84.8653 96.5797 71.1779 
72.5252 101.804 82.344 79.5301 104.269 61.5481 65.2747 95.6939 69.2667 
56.5826 110.135 63.9762 81.7218 116.81 57.2747 108.548 164.21 148.711 
95.1414 160.684 167.166 105.727 170.945 162.383 94.0705 183.925 157.632 
52.9953 137.619 137.992 68.777 107.156 112.64 51.7319 96.3556 133.935 
54.0914 101.133 120.062 57.423 150.704 156.306 25.9203 140.873 150.192 
33.9979 123.422 160.527 157.509 106.363 159.787 171.636 120.217 154.503 
159.392 122.292 148.792 164.513 126.314 164.448 119.588 65.8779 161.414 
101.787 101.847 152.795 107.137 64.6322 152.431 110.971 70.4731 171.441 
29.3755 180.714 150.338 31.847 172.939 173.251 35.0347 188.709 163.256 
127.751 103.952 132.124 141.447 109.618 122.333 129.414 88.2647 124.056 
123.896 106.693 118.15 88.7783 196.931 146.303 84.2043 203.745 166.99 
71.8964 206.63 166.383 146.135 142.669 184.326 158.144 136.93 190.53 
137.139 130.987 191.254 89.3291 93.8572 185.797 82.6975 84.9506 176.782 
99.6455 83.816 175.17 106.542 140.004 159.581 128.739 145.629 153.869 
128.574 163.331 160.024 111.97 115.949 175.153 140.268 91.4635 176.756 
159.461 90.3324 189.609 145.757 93.7966 192.785 109.61 180.839 173.663 
112.005 193.185 166.534 98.6789 190.79 173.494 86.72 171.604 127.134 
100.831 103.008 192.528 112.721 121.903 195.28 89.0444 128.164 197.538 
98.5584 113.359 204.735 39.1057 168.761 105.652 68.5241 178.742 129.852 
29.8489 154.303 123.442 122.689 178.685 159.702 125.515 118.455 133.644 
124.347 114.251 163.434 131.089 137.644 142.569 72.745 165.632 164.587 
72.9303 167.799 91.1361 46.0653 151.289 77.0862 44.7203 163.273 89.9025 
54.3654 169.859 72.0359 59.31 138.196 86.6997 40.1491 135.343 98.8792 
34.6595 141.794 112.809 100.027 106.535 82.0136 110.474 101.929 93.5605 
108.819 114.269 100.008 96.2586 109.717 95.6696 140.545 112.173 149.594 
128.697 127.424 174.87 154.709 135.432 174.852 136.295 139.02 160.762 
84.8155 177.845 109.334 92.6724 188.152 116.344 74.0607 205.078 118.868 
104.593 144.322 174.34 74.2547 124.441 186.383 45.5644 112.635 174.312 
56.6992 98.6971 182.163 56.9832 117.211 188.922 154.656 70.2775 172.356 
162.07 83.3882 150.564 172.851 98.4081 168.704 40.1637 124.803 106.095 
104.772 181.205 93.4042 94.1676 154.332 112.823 108.251 164.992 86.3531 
70.2234 133.65 164.763 78.0963 100.964 154.391 208.885 107.255 172.761 
194.999 114.592 167.217 199.895 99.0514 175.658 201.52 115.356 178.866 
51.9077 179.255 91.5168 69.6119 113.029 95.6666 55.8381 112.415 101.169 
76.8887 114.334 105.999 110.536 131.847 181.364 109.505 143.025 191.196 
95.7133 142.366 192.792 45.8627 181.655 107.166 46.4634 189.182 119.703 
105.088 194.768 136.804 105.388 183.207 129.787 88.3276 103.928 193.23 
79.608 117.087 199.196 76.4635 139.591 141.572 121.968 63.5639 147.816 
44.7722 125.343 83.4264 34.7991 129.688 88.7526 46.4432 115.343 90.0546 
37.9553 105.439 132.052 43.8558 95.1172 146.384 38.8882 111.359 144.214 
174.135 67.1415 154.261 186.499 91.8592 140.521 186.959 70.4238 160.203 
80.605 137.675 58.4262 51.7305 126.616 57.0775 78.2626 125.901 47.513 
87.3078 143.214 162.47 116.747 168.266 173.699 153.013 77.7335 143.165 
177.871 97.1211 130.608 162.691 64.0527 134.446 110.936 91.9781 186.399 
180.364 74.0518 172.608 193.959 88.1307 174.232 186.778 99.0521 151.18 
129.739 157.292 142.043 122.24 160.68 118.635 139.729 158.217 129.539 
128.433 144.995 130.911 105.164 132.898 107.012 117.747 118.205 111.15 
123.25 126.648 95.1905 44.4993 112.255 122.329 84.6513 172.541 174.012 
98.1288 178.208 182.046 94.5014 168.221 188.35 32.2284 119.042 118.081 
32.8509 131.25 126.16 92.601 199.056 123.956 90.1854 206.069 114.427 
99.9648 198.919 110.19 97.7271 128.886 140.723 43.1883 199.933 156.029 
43.4098 192.947 172.562 172.291 109.1 135.684 191.487 106.172 181.585 
180.66 122.981 168.405 185.851 120.947 184.811 84.6064 195.635 176.698 
57.0935 197.525 119.995 52.9611 205.972 135.617 64.0794 212.062 140.354 
61.2931 210.304 121.308 141.848 124.476 120.266 157.612 114.028 130.492 
153.631 128.532 127.814 138.704 132.732 131.851 93.2233 189.053 130.692 
64.6699 199.843 109.046 192.763 68.6645 144.3 205.318 79.6737 136.286 
196.776 90.5259 149.41 71.552 136.912 196.018 65.789 154.86 194.365 
50.4192 138.724 191.142 58.8544 115.986 47.8487 58.4741 129.344 45.6549 
74.6459 122.881 34.5628 77.6783 153.846 60.0103 93.941 143.769 71.0302 
38.9777 157.826 99.5847 73.4743 160.465 182.711 48.7124 152.528 191.822 
80.3771 204.029 106.406 87.3735 85.7161 135.245 101.564 75.9866 127.176 
90.6321 68.6308 141.394 34.0653 150.633 181.604 39.3407 139.378 184.73 
88.9563 68.0931 127.193 98.6153 63.3557 117.758 101.47 64.6817 134.469 
71.3351 221.252 133.568 72.3456 106.08 191.139 167.276 99.7416 121.593 
151.391 90.31 146.943 165.663 128.549 177.389 56.0804 158.941 58.3559 
50.5149 142.262 58.7019 49.2421 152.1 65.5102 137.114 99.3954 108.596 
136.488 94.1276 138.816 102.506 91.9825 126.754 121.105 138.224 178.806 
125.468 155.063 171.918 126.118 140.004 167.378 55.4932 198.065 174.145 
58.866 207.007 165.202 91.8773 123.462 81.8433 108.598 101.574 114.832 
93.2049 107.759 123.841 108.843 115.246 124.012 200.086 76.5474 159.376 
210.301 89.8525 151.142 208.25 91.8014 167.229 122.522 190.745 148.52 
45.4235 102.754 158.946 34.9687 107.55 163.788 196.9 100.212 159.031 
42.3004 108.618 106.353 116.828 175.191 105.369 102.214 177.503 117.939 
111.125 188.443 110.498 85.5642 159.973 69.5735 132.091 144.216 180.325 
112.086 80.4801 179.995 39.6096 123.091 172.704 115.962 77.8778 120.39 
114.71 62.3969 133.78 67.3062 194.489 93.6689 90.8469 198.276 100.481 
59.8232 168.577 192.768 43.7403 165.004 188.137 39.9643 189.937 132.168 
79.0406 97.7606 124.027 116.809 196.908 139.618 195.836 125.904 175.18 
85.8588 214.083 137.902 85.1665 210.71 125.288 159.369 69.8429 90.7116 
152.908 64.1439 104.199 167.363 82.3649 106.786 153.373 82.5667 98.3453 
61.1995 86.801 132.964 69.2486 78.798 140.246 89.4858 97.7266 144.791 
93.8172 124.887 124.508 140.79 88.105 101.128 154.012 94.3581 109.64 
130.831 79.7468 106.393 50.1063 175.53 189.528 44.7623 183.499 181.706 
123.923 86.5566 98.3827 95.1652 205.703 160.974 150.962 80.1974 189.243 
143.224 73.4716 181.382 58.9534 111.118 88.7982 58.9405 180.557 79.6148 
56.8136 206.64 152.28 119.181 101.872 191.152 123.32 83.1094 186.431 
126.057 61.2693 118.577 118.262 76.8542 107.675 137.398 65.2456 107.947 
115.827 65.0111 103.005 186.487 86.3128 129.469 177.98 63.5801 134.368 
79.2932 72.5881 144.039 91.1177 67.6916 155.659 74.978 94.3071 183.905 
64.626 175.952 66.2227 60.2125 148.089 48.6191 69.8428 136.697 45.9448 
116.137 89.8292 112.94 108.752 201.588 150.505 131.304 70.1109 96.7911 
119.937 69.3633 91.1564 85.2616 159.807 192.773 83.8624 174.083 190.604 
81.4616 186.176 185.543 164.531 65.7879 146.566 34.5839 146.565 96.3802 
48.1867 197.796 128.134 71.0285 184.54 74.0618 77.1512 192.145 85.5472 
43.8241 125.506 184.675 116.748 126.838 172.002 24.7596 140.271 136.883 
24.3909 128.094 146.558 24.1323 167.03 157.271 57.5908 188.077 183.308 
70.1678 95.6756 116.109 81.9696 108.523 117.476 54.4617 84.8848 148.349 
47.3391 90.0786 157.593 54.8831 98.249 105.505 72.2487 170.085 193.025 
177.401 110.024 187.987 172.743 125.273 188.017 75.9797 90.0275 63.7288 
99.0929 156.818 189.575 69.5123 97.9619 55.2087 71.5767 110.695 49.934 
71.1861 80.2595 163.781 65.7904 80.7451 152.303 74.2769 68.2782 154.406 
181.031 110.364 153.287 28.2516 165.827 116.57 28.6117 155.536 107.821 
116.91 164.503 96.8871 122.348 157.054 106.108 24.8534 134.227 164.555 
141.075 69.2488 169.364 133.207 66.3583 158.22 143.353 80.7504 151.31 
145.874 66.4514 155.77 130.76 72.791 178.053 144.587 63.5314 122.131 
124.96 113.916 186.131 69.003 182.295 188.251 124.734 138.588 120.785 
47.6102 134.032 67.0254 78.715 211.729 148.597 128.732 170.843 146.396 
90.9302 191.794 88.8267 128.649 112.772 204.835 130.02 106.691 194.368 
137.738 115.969 194.393 29.6982 158.834 170.411 27.0865 147.398 161.808 
33.515 133.325 175.051 21.921 147.749 174.964 109.755 139.74 77.566 
114.961 128.964 85.1486 119.947 145.677 91.7726 90.9712 96.618 129.66 
26.4698 154.668 142.525 79.1454 146.746 194.343 104.737 149.986 73.1771 
111.148 151.974 83.4532 96.7512 158.172 77.4972 89.6131 172.225 74.5403 
96.4935 180.599 82.6847 182.801 94.1633 181.905 164.326 102.233 192.738 
58.5262 89.1166 165.288 94.4512 112.086 69.5475 92.9467 96.341 80.688 
86.0813 109.16 86.0046 167.991 69.2048 167.781 170.944 85.7745 184.872 
107.246 119.294 80.47 118.382 131.506 73.2936 103.662 129.15 72.6668 
143.013 72.7585 90.3771 84.8478 185.343 77.6175 37.8257 200.397 141.342 
80.6578 178.314 62.6408 77.1834 166.465 63.2166 152.186 103.945 118.044 
69.5217 86.4085 80.0589 120.632 98.0158 102.397 89.3484 112.428 107.594 
102.218 113.146 111.797 108.973 125.515 116.501 32.8648 178.463 117.85 
68.2189 157.793 51.9788 100.741 207.859 141.633 80.1139 203.928 90.1038 
101.529 191.483 100.057 69.522 195.368 180.031 37.2459 201.753 166.622 
128.363 170.587 132.135 130.801 94.7504 192.797 164.575 64.0949 119.266 
161.851 76.0435 182.304 181.386 63.4671 120.708 179.619 87.3569 119.239 
51.3629 113.391 79.0204 48.7032 123.18 72.1753 67.9237 87.515 173.689 
61.3149 129.822 194.577 125.22 184.119 136 33.44 163.574 181.296 
103.879 137.658 204.699 199.085 120.828 189.878 191.528 136.323 183.239 
126.246 126.775 204.801 31.0137 118.372 133.58 86.1079 76.4726 165.779 
135.375 183.374 143.131 44.3555 97.4634 173.287 133.266 62.3523 137.173 
109.686 110.083 199.248 65.8094 218.729 152.003 122.963 132.932 106.009 
56.9456 102.511 79.5078 104.549 124.78 204.833 158.636 67.5614 157.307 
155.009 136.522 157.09 146.352 139.432 144.235 153.591 152.058 159.389 
[...]
CELL_DATA 1389
SCALARS Materials int
LOOKUP_TABLE default
385 385 385 385 385 385 385 385 385 
385 385 385 385 385 385 385 385 385 
385 385 385 385 385 385 385 385 385 
385 385 385 385 385 385 385 385 385 
385 385 385 385 385 385 385 385 385 
385 385 385 385 385 385 385 385 385 
385 385 385 385 385 385 385 385 385 
385 385 385 385 385 385 385 385 385 
385 385 385 385 385 385 385 385 385 
385 385 385 385 385 385 385 385 385 
385 385 385 385 385 385 385 385 385 
385 385 385 385 385 385 385 385 385 
385 385 385 385 385 385 385 385 385 
385 385 385 385 385 385 385 385 385 
385 385 385 385 385 385 385 385 385 
385 385 385 385 385 385 385 385 385 
385 385 385 385 385 385 385 385 385 
385 385 385 385 385 385 385 385 385 
385 385 385 385 385 385 385 385 385 
385 385 385 385 385 385 385 385 385 
385 385 385 385 385 385 385 385 385 
385 385 385 385 385 385 385 385 385 
385 385 385 385 385 385 385 385 385 
385 385 385 385 385 385 385 385 385 
385 385 385 385 385 385 385 385 385 
385 385 385 385 385 385 385 385 385 
385 385 385 385 385 385 385 385 385 
385 385 385 385 385 385 385 385 385 
385 385 385 385 385 385 385 385 385 
385 385 385 385 385 385 385 385 385 
385 385 385 385 385 385 385 385 385 
385 385 385 385 385 385 385 385 385 
385 385 385 385 385 385 385 385 385 
385 385 385 385 385 385 385 385 385 
385 385 385 385 385 385 385 385 385 
385 385 385 385 385 385 385 385 385 
385 385 385 385 385 385 385 385 385 
385 385 385 385 385 385 385 385 385 
385 385 385 385 385 385 385 385 385 
385 385 385 385 385 385 385 385 385 
385 385 385 385 385 385 385 385 385 
385 385 385 385 385 385 385 385 385 
385 385 385 385 385 385 385 385 385 
385 385 385 385 385 385 385 385 385 
385 385 385 385 385 385 385 385 385 
385 385 385 385 385 385 385 385 385 
385 385 385 385 385 385 385 385 385 
385 385 385 385 385 385 385 385 385 
385 385 385 385 385 385 385 385 385 
385 385 385 385 385 385 385 385 385 
385 385 385 385 385 385 385 385 385 
385 385 385 385 385 385 385 385 385 
385 385 385 385 385 385 385 385 385 
385 385 385 385 385 385 385 385 385 
385 385 385 385 385 385 385 385 385 
385 385 385 385 385 385 385 385 385 
385 385 385 385 385 385 385 385 385 
385 385 385 385 385 385 385 385 385 
385 385 385 385 385 385 385 385 385 
385 385 385 385 385 385 385 385 385 
385 385 385 385 385 385 385 385 385 
385 385 385 385 385 385 385 385 385 
385 385 385 385 385 385 385 385 385 
385 385 385 385 385 385 385 385 385 
385 385 385 385 385 385 385 385 385 
385 385 385 385 385 385 385 385 385 
385 385 385 385 385 385 385 385 385 
385 385 385 385 385 385 385 385 385 
385 385 385 385 385 385 385 385 385 
385 385 385 385 385 385 385 385 385 
385 385 385 385 385 385 385 385 385 
385 385 385 385 385 385 385 385 385 
385 385 385 385 385 385 385 385 385 
385 385 385 385 385 385 385 385 385 
385 385 385 385 385 385 385 385 385 
385 385 385 385 385 385 385 385 385 
385 385 385 385 385 385 385 385 385 
385 385 385 385 385 385 385 385 385 
385 385 385 385 385 385 385 385 385 
385 385 385 385 385 385 385 385 385 
385 385 385 385 385 385 385 385 385 
385 385 385 385 385 385 385 385 385 
385 385 385 385 385 385 385 385 385 
385 385 385 385 385 385 385 385 385 
385 385 385 385 385 385 385 385 385 
385 385 385 385 385 385 385 385 385 
385 385 385 385 385 385 385 385 385 
385 385 385 385 385 385 385 385 385 
385 385 385 385 385 385 385 385 385 
385 385 385 385 385 385 385 385 385 
385 385 385 385 385 385 385 385 385 
385 385 385 385 385 385 385 385 385 
385 385 385 385 385 385 385 385 385 
385 385 385 385 385 385 385 385 385 
385 385 385 385 385 385 385 385 385 
385 385 385 385 385 385 385 385 385 
385 385 385 385 385 385 385 385 385 
385 385 385 385 385 385 385 385 385 
385 385 385 385 385 385 385 385 385 
385 385 385 385 385 385 385 385 385 
385 385 385 385 385 385 385 385 385 
385 385 385 385 385 385 385 385 385 
385 385 385 385 385 385 385 385 385 
385 385 385 385 385 385 385 385 385 
385 385 385 385 385 385 385 385 385 
385 385 385 385 385 385 385 385 385 
385 385 385 385 385 385 385 385 385 
385 385 385 385 385 385 385 385 385 
385 385 385 385 385 385 385 385 385 
385 385 385 385 385 385 385 385 385 
385 385 385 385 385 385 385 385 385 
385 385 385 385 385 385 385 385 385 
385 385 385 385 385 385 385 385 385 
385 385 385 385 385 385 385 385 385 
385 385 385 385 385 385 385 385 385 
385 385 385 385 385 385 385 385 385 
385 385 385 385 385 385 385 385 385 
385 385 385 385 385 385 385 385 385 
385 385 385 385 385 385 385 385 385 
385 385 385 385 385 385 385 385 385 
385 385 385 385 385 385 385 385 385 
385 385 385 385 385 385 385 385 385 
385 385 385 385 385 385 385 385 385 
385 385 385 385 385 385 385 385 385 
385 385 385 385 385 385 385 385 385 
385 385 385 385 385 385 385 385 385 
385 385 385 385 385 385 385 385 385 
385 385 385 385 385 385 385 385 385 
385 385 385 385 385 385 385 385 385 
385 385 385 385 385 385 385 385 385 
385 385 385 385 385 385 385 385 385 
385 385 385 385 385 385 385 385 385 
385 385 385 385 385 385 385 385 385 
385 385 385 385 385 385 385 385 385 
385 385 385 385 385 385 385 385 385 
385 385 385 385 385 385 385 385 385 
385 385 385 385 385 385 385 385 385 
385 385 385 385 385 385 385 385 385 
385 385 385 385 385 385 385 385 385 
385 385 385 385 385 385 385 385 385 
385 385 385 385 385 385 385 385 385 
385 385 385 385 385 385 385 385 385 
385 385 385 385 385 385 385 385 385 
385 385 385 385 385 385 385 385 385 
385 385 385 385 385 385 385 385 385 
385 385 385 385 385 385 385 385 385 
385 385 385 385 385 385 385 385 385 
385 385 385 385 385 385 385 385 385 
385 385 385 385 385 385 385 385 385 
385 385 385 385 385 385 385 385 385 
385 385 385 385 385 385 385 385 385 
385 385 385 385 385 385 385 385 385 
385 385 385 385 385 385 385 385 385 
385 385 385 385 385 385 385 385 385 
385 385 385 
