# vtk DataFile Version 3.0
vtk output
ASCII
DATASET POLYDATA
POINTS 106 float
124.254 133.005 -0.008204 123.381 138.668 13.7286 124.502 150.709 8.57972 
133.546 135.475 7.57403 114.856 148.522 -0.0753024 133.736 147.036 -0.0215438 
147.175 137.738 0.0263707 142.717 156.935 8.8273 142.258 128.45 12.5399 
163.553 139.601 -0.0219681 156.858 150.901 0.0161685 158.351 142.89 12.2905 
124.734 138.588 120.785 124.457 144.745 109.863 122.963 132.932 106.009 
187.382 170.585 131.817 189.407 181.943 119.245 189.168 165.197 117.539 
203.529 179.994 128.773 202.771 163.973 116.195 205.48 162.304 129.546 
216.855 178.356 126.331 205.709 181.521 115.966 194.273 161.791 106.455 
219.347 167.027 119.141 128.433 144.995 130.911 131.089 137.644 142.569 
139.83 144.402 135.208 142.375 147.263 154.176 146.352 139.432 144.235 
136.295 139.02 160.762 128.739 145.629 153.869 138.51 150.734 166.381 
118.382 131.506 73.2936 111.804 130.793 62.5729 123.015 138.425 61.5609 
109.755 139.74 77.566 133.535 129.963 63.1986 114.961 128.964 85.1486 
127.354 132.423 82.0901 104.206 143.249 60.4623 126.173 144.544 73.5178 
119.947 145.677 91.7726 132.575 147.9 59.6153 124.894 142.885 46.9117 
133.035 127.599 45.4143 141.688 132.869 78.0708 142.342 152.057 80.9614 
133.558 144.739 88.9308 147.088 143.359 65.546 141.761 133.13 95.276 
154.341 130.774 100.862 135.286 128.008 105.386 148.566 141.175 102.675 
136.104 140.76 104.966 123.25 126.648 95.1905 142.229 150.402 98.2566 
151.063 141.366 87.1691 151.672 129.151 113.087 143.353 138.251 115.767 
128.188 127.518 116.009 141.848 124.476 120.266 176.833 157.754 127.863 
167.605 150.842 122.155 183.748 146.178 132.686 171.355 134.509 121.201 
171.332 164.068 118.096 172.291 151.765 110.153 195.245 152.141 124.698 
183.019 149.808 115.946 183.966 133.271 117.633 176.574 140.531 107.337 
183.875 149.619 99.2255 118.295 132.325 36.4216 132.067 129.602 28.1741 
146.828 138.172 45.0121 143.207 128.439 54.0733 146.145 124.548 39.089 
119.382 132.138 23.8098 143.949 137.978 30.5655 131.733 146.526 26.3167 
127.808 151.422 37.9354 138.099 139.312 53.2307 137.829 149.826 45.6158 
148.275 148.644 21.3702 137.291 145.329 13.8031 132.091 144.216 180.325 
126.118 140.004 167.378 125.468 155.063 171.918 121.105 138.224 178.806 
132.961 145.535 194.792 121.762 136.57 192.34 137.139 130.987 191.254 
115.424 151.976 182.362 109.505 143.025 191.196 94.8677 136.544 50.1881 
107.879 147.399 45.072 94.7992 153.319 55.2259 138.704 132.732 131.851 
151.524 147.431 128.29 122.396 147.289 204.73 126.246 126.775 204.801 
116.71 135.604 204.829 133.921 137.286 204.813 145.445 131.236 204.85 
143.368 147.034 204.852 
POLYGONS 208 832
3 0 1 2 
3 3 1 0 
3 0 2 4 
3 2 5 4 
3 6 5 7 
3 8 3 6 
3 9 6 10 
3 6 11 10 
3 9 11 6 
3 11 8 6 
3 3 5 6 
3 5 3 0 
3 5 0 4 
3 12 13 14 
3 15 16 17 
3 16 15 18 
3 18 19 16 
3 19 17 16 
3 18 15 17 
3 17 19 18 
3 19 20 18 
3 20 21 18 
3 22 19 18 
3 21 22 18 
3 17 15 20 
3 23 17 19 
3 17 20 19 
3 20 24 21 
3 24 20 19 
3 22 24 19 
3 25 26 27 
3 27 26 28 
3 29 27 28 
3 27 29 26 
3 11 9 10 
3 26 30 31 
3 28 26 31 
3 26 28 30 
3 26 29 28 
3 24 22 21 
3 28 32 30 
3 32 28 31 
3 33 34 35 
3 33 36 34 
3 37 33 35 
3 33 38 36 
3 39 38 33 
3 37 39 33 
3 34 40 35 
3 34 36 40 
3 35 36 41 
3 36 39 41 
3 39 36 42 
3 36 38 42 
3 40 36 35 
3 35 43 44 
3 35 41 43 
3 45 37 35 
3 44 45 35 
3 46 41 47 
3 41 48 47 
3 41 46 49 
3 41 49 43 
3 41 39 48 
3 50 51 52 
3 50 53 51 
3 53 50 54 
3 50 52 55 
3 56 50 48 
3 56 54 50 
3 39 50 55 
3 50 57 48 
3 57 50 46 
3 50 39 46 
3 51 58 52 
3 53 58 51 
3 53 59 58 
3 59 53 54 
3 60 14 52 
3 52 61 60 
3 58 61 52 
3 52 14 55 
3 42 48 39 
3 38 55 42 
3 14 42 55 
3 42 14 48 
3 37 46 39 
3 55 38 39 
3 48 46 47 
3 54 56 48 
3 57 46 48 
3 14 54 48 
3 62 63 64 
3 63 65 64 
3 66 63 62 
3 63 66 67 
3 65 63 67 
3 68 64 69 
3 69 70 71 
3 70 69 64 
3 62 17 69 
3 17 68 69 
3 72 69 71 
3 69 72 67 
3 69 66 62 
3 67 66 69 
3 68 62 64 
3 68 17 62 
3 65 70 64 
3 13 54 14 
3 12 54 13 
3 59 54 12 
3 73 45 44 
3 45 73 74 
3 75 76 45 
3 77 45 74 
3 76 37 45 
3 45 77 75 
3 78 74 73 
3 77 74 79 
3 1 74 78 
3 3 74 1 
3 8 79 74 
3 8 74 3 
3 80 78 73 
3 81 73 44 
3 73 81 80 
3 43 82 44 
3 83 81 44 
3 44 82 83 
3 79 84 80 
3 84 85 80 
3 80 1 78 
3 1 80 2 
3 80 85 2 
3 83 80 81 
3 79 80 83 
3 76 75 82 
3 49 82 43 
3 82 75 83 
3 49 76 82 
3 46 37 49 
3 76 49 37 
3 83 75 79 
3 77 79 75 
3 85 84 79 
3 5 85 7 
3 85 6 7 
3 79 8 85 
3 85 11 6 
3 11 85 8 
3 85 5 2 
3 86 87 88 
3 89 86 88 
3 86 89 87 
3 90 86 91 
3 86 92 91 
3 90 92 86 
3 89 93 86 
3 93 91 86 
3 91 89 86 
3 87 86 32 
3 86 30 32 
3 30 86 87 
3 87 89 88 
3 30 87 31 
3 87 32 31 
3 94 89 91 
3 89 94 93 
3 40 95 96 
3 97 40 96 
3 40 97 95 
3 95 97 96 
3 59 61 58 
3 61 59 98 
3 27 59 25 
3 59 12 25 
3 99 59 27 
3 99 98 59 
3 60 61 98 
3 60 98 12 
3 60 12 14 
3 27 26 98 
3 26 25 98 
3 12 98 25 
3 98 99 27 
3 15 68 20 
3 15 17 68 
3 68 23 19 
3 68 17 23 
3 20 68 19 
3 70 65 71 
3 65 67 71 
3 67 72 71 
3 91 100 90 
3 101 91 92 
3 93 94 91 
3 91 102 100 
3 91 101 102 
3 100 103 90 
3 100 102 103 
3 103 101 92 
3 104 103 92 
3 105 103 104 
3 105 90 103 
3 102 101 103 
3 90 105 92 
3 105 104 92 

CELL_DATA 208
SCALARS Materials int
LOOKUP_TABLE default
33 33 33 33 33 33 33 33 33 
33 33 33 33 33 33 33 33 33 
33 33 33 33 33 33 33 33 33 
33 33 33 33 33 33 33 33 33 
33 33 33 33 33 33 33 33 33 
33 33 33 33 33 33 33 33 33 
33 33 33 33 33 33 33 33 33 
33 33 33 33 33 33 33 33 33 
33 33 33 33 33 33 33 33 33 
33 33 33 33 33 33 33 33 33 
33 33 33 33 33 33 33 33 33 
33 33 33 33 33 33 33 33 33 
33 33 33 33 33 33 33 33 33 
33 33 33 33 33 33 33 33 33 
33 33 33 33 33 33 33 33 33 
33 33 33 33 33 33 33 33 33 
33 33 33 33 33 33 33 33 33 
33 33 33 33 33 33 33 33 33 
33 33 33 33 33 33 33 33 33 
33 33 33 33 33 33 33 33 33 
33 33 33 33 33 33 33 33 33 
33 33 33 33 33 33 33 33 33 
33 33 33 33 33 33 33 33 33 
33 
