# vtk DataFile Version 3.0
vtk output
ASCII
DATASET POLYDATA
POINTS 451 float
264.726 115.026 179.351 276.17 110.574 190.313 272.752 102.776 180.496 
263.498 110.164 193.158 260.253 103.731 179.897 250.072 167.415 11.1645 
256.962 169.047 0.0401951 243.153 168.095 -0.0398557 246.388 154.351 0.059311 
251.517 156.746 18.7777 257.456 145.446 13.3524 156.858 150.901 0.0161685 
164.093 161.719 -0.0183961 171.974 152.379 0.0356889 280.101 122.059 185.678 
267.526 121.748 189.781 276.754 129.879 176.895 276.842 111.902 204.088 
263.624 113.931 204.81 55.09 169.321 11.8911 47.6857 180.698 -0.0428466 
42.5049 163.56 -0.0255513 58.353 168.155 0.019894 53.6885 181.368 10.5589 
125.685 203.132 164.49 132.29 217.671 168.776 143.442 205.303 167.882 
136.821 205.596 152.52 134.296 214.18 180.633 29.5729 119.956 192.751 
28.6951 129.435 204.782 14.6957 124.08 196.636 25.3791 136.43 189.649 
16.5323 133.964 204.845 26.3518 141.738 204.784 28.2515 123.883 181.085 
18.9858 115.184 182.728 25.4666 104.703 189.211 74.9978 197.514 13.6101 
81.5826 196.249 -0.0309566 72.2176 204.12 0.0975868 24.3909 128.094 146.558 
33.9979 123.422 160.527 13.9191 127.142 160.523 31.0137 118.372 133.58 
21.2328 110.711 143.199 38.8882 111.359 144.214 161.555 189.861 91.8701 
157.602 185.043 77.0212 167.013 198.983 77.7558 69.3359 78.9996 108.997 
63.0222 86.5926 119.603 64.7885 72.659 124.139 54.5983 84.2703 108.329 
54.4546 66.8043 109.971 273.779 137.74 160.209 286.987 140.343 155.127 
269.567 144.341 146.776 276.126 131.431 148.992 146.646 215.2 184.406 
130.83 223.28 188.506 144.284 220.711 195.574 33.2746 214.214 192.405 
39.5973 214.348 204.808 34.5799 226.417 204.777 51.1619 225.182 193.125 
48.3384 222.983 204.788 267.508 95.5099 192.772 253.199 97.409 187.521 
25.7292 185.589 185.93 34.1917 202.415 178.499 27.7017 198.748 191.038 
23.6991 192.925 172.645 248.098 217.998 185.647 259.541 204.692 192.433 
251.458 221.571 197.591 259.772 212.984 183.506 238.369 225.967 195.676 
242.591 217.742 204.787 249.927 232.395 204.831 253.043 86.911 167.163 
243.491 90.9729 159.157 258.174 78.9519 159.139 254.687 98.2675 160.822 
260.655 82.5266 147.566 50.7779 102.904 204.823 37.8555 99.2593 204.791 
48.934 90.6039 204.795 45.2429 94.1729 192.866 27.2322 169.187 144.918 
26.4698 154.668 142.525 9.34497 162.279 150.724 24.1323 167.03 157.271 
81.0084 244.05 192.782 74.3164 231.317 204.869 69.8124 240.104 187.874 
73.6868 247.07 204.76 267.684 207.688 204.76 258.949 192.45 204.823 
278.999 199.363 203.948 199.035 222.591 177.276 210.522 228.183 189.886 
194.318 228.834 191.583 208.511 231.647 177.405 266.082 120.886 -0.010706 
268.475 129.348 10.2453 254.574 127.194 0.0192306 101.514 63.8532 180.109 
98.2159 73.2087 168.201 95.7705 60.7096 167.244 110.971 70.4731 171.441 
58.3668 88.3008 197.023 57.3792 84.369 181.589 47.9536 75.4604 187.744 
61.4854 77.2892 190.501 151.416 167.309 90.348 147.998 173.541 71.1219 
141.064 165.356 82.4005 153.99 160.874 69.0841 135.286 175.729 63.187 
140.003 184.275 80.6237 155.254 172.282 55.4413 142.799 159.723 58.4998 
167.313 172.399 72.825 143.622 154.287 69.2051 132.794 159.441 70.7438 
130.416 172.516 79.315 150.148 188.275 64.6026 138.533 183.938 52.0225 
135.987 190.306 67.2293 134.831 163.108 47.2499 142.189 174.284 44.2421 
125.366 165.579 57.905 128.908 174.956 45.745 146.314 158.727 46.3773 
137.829 149.826 45.6158 132.575 147.9 59.6153 155.871 146.93 53.609 
138.099 139.312 53.2307 126.173 144.544 73.5178 142.342 152.057 80.9614 
130.465 157.628 83.8482 147.881 199.021 124.186 138.728 207.188 118.34 
141.503 191.724 114.661 150.577 206.537 135.182 138.802 189.342 130.391 
129.153 205.426 134.904 154.803 212.794 121.633 164.936 204.507 130.358 
161.805 194.215 119.502 153.598 203.142 114.11 158.902 188.901 106.205 
165.106 207.92 111.113 142.539 201.901 108.052 173.844 199.238 141.604 
163.853 213.974 149.071 160.703 200.576 146.339 167.72 187.473 130.778 
157.526 188.017 140.945 173.032 199.175 115.984 217.366 189.636 5.56284 
208.202 198.881 5.8722 218.464 204.317 -0.0180551 224.764 199.603 9.392 
218.952 179.461 13.3982 230.564 189.389 12.9282 217.84 194.63 20.1212 
206.181 180.934 -0.0156855 227.694 181.913 0.0920652 205.486 213.121 1.37967 
219.304 209.066 14.9691 281.145 150.184 -0.0167946 276.208 129.234 -0.0239648 
264.638 136.201 0.067435 270.772 141.567 13.5163 266.127 156.317 13.7228 
259.284 148.6 -0.0307562 124.878 189.54 14.8258 129.771 191.291 26.4554 
132.8 201.501 16.06 141.158 190.56 11.8438 127.482 188.167 46.8166 
132.58 199.538 41.2336 141.704 189.39 40.7387 140.505 198.032 27.7191 
139.374 176.194 16.7333 140.428 202.959 0.856567 147.552 202.11 12.3116 
154.392 199.094 0.582995 137.61 179.516 -0.00500037 129.442 191.381 -0.067212 
148.5 187.174 -0.0749603 127.172 175.758 10.421 124.22 204.806 0.0411362 
147.299 209.787 25.6736 138.583 177.105 130.444 128.732 170.843 146.396 
135.375 183.374 143.131 141.164 165.117 144.745 146.111 177.531 140.555 
149.658 175.02 125.671 139.729 158.217 129.539 128.363 170.587 132.135 
138.385 178.113 153.984 143.051 192.915 145.269 132.573 194.655 139.369 
157.276 184.381 124.89 159.982 177.041 134.114 152.886 161.778 138.3 
167.302 171.082 143.284 151.253 167.564 153.817 158.612 179.888 152.772 
122.655 172.692 22.0089 130.287 163.909 16.6529 134.221 169.375 36.2935 
124.549 158.072 27.5866 123.498 164.413 39.6381 130.774 179.001 29.6482 
151.308 173.959 26.0099 140.22 158.948 34.2922 139.558 157.51 21.9464 
124.502 150.709 8.57972 142.717 156.935 8.8273 125.656 162.358 0.0324408 
138.55 166.117 -0.0465878 148.041 179.069 170.185 147.819 192.865 161.301 
158.971 194.424 176.577 167.591 191.786 158.28 130.746 191.311 159.554 
133.844 183.778 170.662 146.181 191.498 174.492 159.713 167.238 176.199 
162.116 182.852 168.358 151.345 179.761 184.765 176.353 194.842 170.44 
168.665 188.336 183.191 177.988 180.25 169.205 166.168 170.917 161.113 
157.419 162.718 164.743 140.319 171.204 186.405 142.944 166.103 175.65 
141.056 167.473 162.477 172.156 181.123 151.121 162.743 162.695 127.246 
168.168 174.728 124.072 169.548 204.158 162.438 157.545 208.78 165.393 
171.754 216.798 162.925 171.126 184.734 53.2095 169.241 195.204 47.5231 
164.579 187.977 62.8071 166.688 184.761 30.5953 157.337 190.647 35.4784 
166.865 178.185 44.0196 156.485 183.481 49.3431 151.195 194.908 51.7008 
155.703 177.598 38.2556 146.799 195.119 187.259 133.348 180.953 188.625 
134.313 200.279 178.303 142.796 176.146 204.8 136.009 187.918 200.702 
130.806 194.759 190.197 130.779 200.822 203.453 138.252 206.255 189.485 
152.891 169.018 6.09749 151.386 160.539 26.8055 160.409 158.45 11.1664 
148.275 148.644 21.3702 154.353 165.122 39.09 166.556 166.005 41.4272 
157.179 159.822 52.0858 152.543 150.474 35.6516 143.949 137.978 30.5655 
164.922 153.826 43.4647 164.898 159.439 24.3111 146.828 138.172 45.0121 
158.351 142.89 12.2905 173.09 165.711 7.2255 163.881 175.342 16.1503 
165.671 172.724 30.465 150.891 200.571 83.9771 146.942 192.351 94.6909 
135.365 195.919 89.2735 139.487 199.215 76.8051 124.734 187.007 77.6068 
136.484 176.616 93.519 153.056 201.653 101.916 126.874 199.629 80.096 
136.277 188.562 101.62 169.65 165.04 54.1108 170.612 159.229 152.24 
133.736 147.036 -0.0215438 137.291 145.329 13.8031 131.733 146.526 26.3167 
172.784 186.681 5.10893 169.918 195.791 12.8176 171.404 184.703 18.6091 
164.533 174.518 0.0115224 160.526 186.975 5.63279 182.133 181.719 13.4854 
179.099 176.902 0.0567693 177.091 196.968 -0.0160709 174.151 193.447 26.7506 
157.767 200.377 20.5058 162.63 211.005 0.0940931 158.083 186.522 22.1653 
159.3 151.094 99.1801 159.505 155.155 80.8063 172.46 163.203 89.8846 
155.721 167.305 104.767 167.25 162.349 106.274 152.694 148.206 111.525 
143.432 164.143 101.667 142.229 150.402 98.2566 148.566 141.175 102.675 
151.063 141.366 87.1691 155.215 161.545 116.006 138.75 156.13 113.674 
151.524 147.431 128.29 143.981 169.187 114.601 157.969 175.821 113.833 
171.332 164.068 118.096 167.605 150.842 122.155 172.291 151.765 110.153 
167.47 177.502 103.027 146.475 179.252 105.71 156.217 179.293 97.8551 
163.859 175.253 88.8067 151.876 205.704 67.7469 136.642 197.506 54.1113 
145.678 210.269 54.1347 124.563 199.745 51.0348 149.395 206.459 39.4306 
152.286 191.604 204.823 154.05 179.887 199.359 142.498 198.547 204.692 
148.391 164.271 192.35 157.923 193.627 193.403 166.559 185.205 197.668 
161.716 200.711 204.801 149.342 208.405 204.786 180.475 209.188 193.253 
186.961 222.711 204.784 188.077 206.947 204.809 159.969 206.252 193.049 
173.803 220.311 187.95 174.655 198.602 204.796 185.739 220.218 192.876 
168.748 216.647 204.831 150.322 210.7 0.0158349 160.489 171.88 191.318 
171.794 175.55 184.431 273.746 187.748 199.93 284.171 179.502 198.531 
282.496 188.278 185.779 273.731 166.959 194.154 272.175 177.026 180.557 
266.725 191.329 189.135 267.656 176.822 204.867 278.602 167.479 175.262 
286.534 169.208 185.212 175.065 197.33 103.515 167.807 184.045 114.052 
168.525 155.965 137.521 130.348 162.163 96.4917 10.5548 139.027 159.84 
24.8534 134.227 164.555 10.6109 139.731 172.19 27.0865 147.398 161.808 
21.921 147.749 174.964 131.799 175.335 115.206 164.392 219.214 175.208 
165.178 206.195 178.44 158.854 221.642 191.07 175.355 199.683 184.321 
60.617 180.3 0.57223 64.4268 186.459 13.6412 69.8814 189.333 -0.000667289 
70.6811 172.164 0.0502086 82.8129 186.223 6.87121 131.735 164.926 108.488 
275.065 155.622 177.98 186.399 187.766 0.072485 193.162 173.031 0.0647996 
196.807 184.97 11.2427 152.116 146.759 76.0676 147.088 143.359 65.546 
165.062 153.412 64.3672 170.802 160.608 77.2012 133.558 144.739 88.9308 
124.739 194.911 107.806 30.5625 114.996 172.782 34.9687 107.55 163.788 
28.1054 98.4227 168.822 36.3457 108.061 181.509 45.4235 102.754 158.946 
44.3555 97.4634 173.287 136.163 217.439 204.741 229.297 172.368 10.2187 
224.905 181.724 24.6629 215.278 168.719 -0.0585211 180.181 208.953 168.611 
181.448 211.636 156.271 181.904 199.775 160.762 139.423 213.058 140.838 
124.998 207.016 189.678 123.881 217.968 199.562 232.228 87.6423 191.563 
244.44 84.4939 194.66 246.075 90.0896 176.749 235.04 80.7897 180.227 
23.6535 152.276 191.892 19.3066 161.813 181.543 8.75042 150.371 183.585 
21.9398 166.124 197.171 7.16615 168.984 189.906 22.5705 173.179 186.488 
92.9854 236.214 193.942 85.6567 239.785 204.853 91.9721 251.852 204.746 
107.428 240.974 204.783 31.1612 92.6862 153.561 47.3391 90.0786 157.593 
43.8558 95.1172 146.384 139.988 217.391 0.0519738 148.243 229.263 -0.058604 
148.78 215.234 13.1576 158.401 222.471 0.0616499 154.365 227.64 12.0337 
288.138 159.176 176.041 274.744 150.631 166.034 266.036 196.935 158.53 
258.862 187.131 161.908 268.791 186.463 169.652 269.732 187.83 150.706 
40.1491 135.343 98.8792 34.7991 129.688 88.7526 42.308 144.87 86.9202 
34.5839 146.565 96.3802 271.67 133.579 191.943 273.892 149.71 190.905 
285.284 141.631 188.02 279.531 137.373 204.86 265.755 139.745 204.775 
272.058 152.104 204.843 270.018 121.608 161.496 281.87 120.961 170.279 
263.567 128.201 172.96 
POLYGONS 996 3984
3 0 1 2 
3 0 3 1 
3 4 0 2 
3 3 0 4 
3 5 6 7 
3 8 5 7 
3 9 5 8 
3 6 8 7 
3 9 8 10 
3 11 12 13 
3 14 15 16 
3 15 1 3 
3 1 15 17 
3 18 15 3 
3 15 18 17 
3 19 20 21 
3 22 19 21 
3 19 23 20 
3 24 25 26 
3 26 27 24 
3 28 26 25 
3 29 30 31 
3 30 29 32 
3 31 30 33 
3 30 32 34 
3 33 30 34 
3 32 35 31 
3 29 35 32 
3 32 31 33 
3 32 33 34 
3 35 29 31 
3 35 36 29 
3 36 37 29 
3 38 39 40 
3 41 42 43 
3 41 44 45 
3 46 41 45 
3 41 46 44 
3 47 48 49 
3 50 51 52 
3 50 53 51 
3 54 50 52 
3 50 54 53 
3 51 53 52 
3 53 54 52 
3 20 22 21 
3 55 56 57 
3 58 55 57 
3 55 58 56 
3 56 58 57 
3 59 60 61 
3 62 63 64 
3 65 62 64 
3 62 65 63 
3 63 66 64 
3 65 66 63 
3 66 65 64 
3 67 4 2 
3 68 3 4 
3 67 68 4 
3 3 67 2 
3 68 67 3 
3 1 17 3 
3 17 18 3 
3 1 3 2 
3 69 70 71 
3 72 69 71 
3 69 72 70 
3 70 72 71 
3 73 74 75 
3 76 73 75 
3 73 76 74 
3 74 76 75 
3 77 75 78 
3 75 79 78 
3 77 79 75 
3 44 46 45 
3 80 81 82 
3 83 80 82 
3 80 83 81 
3 81 84 82 
3 81 83 84 
3 84 83 82 
3 60 59 28 
3 85 86 87 
3 88 85 87 
3 85 88 86 
3 86 88 87 
3 89 90 91 
3 92 89 91 
3 89 92 90 
3 90 92 91 
3 93 94 95 
3 96 93 95 
3 94 96 95 
3 97 98 99 
3 100 101 102 
3 103 100 102 
3 100 103 101 
3 101 103 102 
3 104 105 106 
3 107 108 109 
3 110 107 109 
3 107 110 108 
3 108 110 109 
3 111 112 113 
3 114 111 113 
3 111 114 112 
3 112 114 113 
3 79 77 78 
3 115 116 117 
3 116 118 117 
3 116 119 120 
3 121 116 122 
3 116 121 119 
3 116 115 48 
3 123 116 48 
3 123 121 116 
3 121 118 116 
3 116 117 124 
3 116 118 122 
3 118 116 124 
3 117 116 120 
3 119 125 126 
3 127 119 128 
3 119 129 128 
3 129 119 127 
3 130 119 131 
3 120 119 126 
3 119 132 125 
3 119 121 131 
3 132 119 133 
3 119 130 133 
3 134 122 131 
3 130 122 135 
3 122 136 135 
3 122 130 131 
3 137 118 122 
3 136 122 132 
3 118 121 122 
3 138 122 135 
3 122 137 135 
3 137 122 138 
3 132 122 125 
3 124 125 122 
3 118 124 122 
3 137 122 134 
3 117 126 125 
3 125 124 139 
3 124 125 140 
3 141 125 139 
3 140 125 141 
3 117 125 124 
3 142 143 144 
3 145 146 142 
3 146 147 142 
3 148 143 142 
3 145 142 149 
3 145 148 142 
3 142 150 149 
3 142 151 150 
3 147 145 142 
3 151 142 144 
3 148 151 143 
3 151 152 150 
3 151 153 152 
3 143 151 154 
3 148 153 151 
3 154 151 144 
3 148 145 149 
3 153 148 149 
3 155 149 156 
3 149 157 156 
3 149 158 159 
3 157 149 159 
3 149 155 158 
3 160 149 150 
3 149 160 153 
3 161 162 163 
3 164 161 163 
3 161 164 162 
3 165 161 166 
3 161 167 166 
3 165 167 161 
3 168 161 169 
3 168 165 161 
3 161 165 169 
3 162 164 163 
3 163 162 170 
3 162 171 170 
3 163 171 162 
3 171 163 170 
3 172 173 174 
3 173 172 175 
3 173 175 105 
3 174 173 105 
3 175 172 176 
3 174 175 177 
3 175 10 177 
3 175 176 10 
3 175 10 105 
3 175 174 10 
3 176 172 177 
3 172 174 177 
3 105 174 106 
3 174 104 106 
3 104 174 105 
3 10 174 105 
3 178 179 180 
3 179 178 181 
3 179 182 183 
3 184 182 179 
3 179 185 180 
3 185 179 181 
3 184 179 185 
3 179 183 185 
3 186 181 178 
3 180 181 187 
3 187 181 188 
3 181 189 188 
3 190 181 186 
3 185 181 180 
3 181 190 191 
3 189 181 192 
3 181 191 192 
3 193 178 191 
3 193 186 178 
3 194 178 180 
3 191 178 194 
3 191 180 187 
3 191 194 180 
3 195 188 180 
3 188 185 180 
3 185 195 180 
3 196 197 198 
3 196 198 146 
3 196 199 197 
3 196 200 199 
3 196 146 201 
3 200 196 201 
3 202 196 199 
3 196 203 199 
3 203 196 202 
3 197 204 198 
3 205 198 200 
3 198 204 200 
3 198 205 206 
3 146 198 206 
3 204 197 199 
3 159 207 200 
3 207 208 200 
3 200 208 209 
3 200 210 208 
3 146 205 200 
3 200 204 205 
3 200 211 210 
3 159 200 205 
3 212 200 208 
3 200 204 199 
3 200 212 211 
3 204 200 211 
3 200 199 211 
3 199 200 209 
3 207 200 201 
3 146 200 207 
3 213 214 215 
3 216 213 215 
3 213 216 217 
3 213 217 218 
3 186 214 213 
3 218 186 213 
3 219 218 215 
3 217 216 215 
3 133 218 215 
3 218 131 215 
3 217 215 218 
3 220 215 221 
3 219 215 220 
3 221 215 214 
3 215 130 133 
3 215 131 130 
3 222 223 214 
3 223 224 214 
3 224 222 214 
3 223 186 214 
3 186 225 214 
3 225 223 214 
3 186 221 214 
3 218 219 186 
3 218 182 184 
3 133 182 218 
3 131 218 184 
3 226 227 212 
3 228 229 227 
3 230 227 231 
3 227 232 231 
3 204 227 205 
3 227 212 205 
3 204 212 227 
3 229 212 227 
3 227 26 232 
3 230 26 227 
3 232 228 227 
3 226 232 227 
3 233 234 235 
3 234 226 235 
3 226 234 233 
3 236 237 234 
3 238 234 239 
3 236 234 229 
3 229 234 238 
3 228 234 235 
3 234 237 235 
3 234 226 239 
3 234 228 226 
3 226 212 211 
3 226 233 240 
3 226 231 241 
3 242 231 226 
3 226 243 242 
3 226 240 239 
3 226 204 243 
3 204 226 211 
3 226 228 232 
3 235 226 241 
3 212 239 211 
3 212 244 239 
3 212 159 205 
3 159 212 208 
3 159 244 212 
3 229 159 212 
3 212 204 211 
3 158 159 244 
3 159 158 207 
3 158 155 159 
3 159 229 157 
3 244 159 155 
3 159 210 244 
3 159 208 210 
3 210 208 245 
3 208 246 245 
3 210 246 208 
3 208 201 209 
3 245 208 209 
3 208 245 201 
3 208 210 209 
3 208 158 210 
3 246 208 207 
3 208 246 158 
3 210 158 244 
3 158 246 207 
3 244 238 239 
3 229 238 244 
3 244 155 229 
3 157 155 156 
3 229 155 157 
3 156 247 248 
3 249 156 248 
3 156 249 247 
3 190 186 193 
3 190 193 191 
3 192 191 187 
3 250 251 252 
3 253 254 251 
3 254 255 251 
3 255 253 251 
3 255 251 250 
3 251 255 256 
3 251 257 252 
3 254 257 251 
3 256 254 251 
3 256 250 252 
3 256 254 258 
3 255 254 256 
3 256 255 250 
3 258 121 256 
3 121 255 256 
3 127 257 256 
3 252 127 256 
3 254 256 257 
3 127 252 257 
3 259 260 232 
3 259 232 261 
3 232 228 235 
3 259 232 235 
3 232 259 228 
3 231 232 260 
3 26 261 232 
3 260 259 235 
3 260 241 262 
3 241 260 235 
3 263 260 262 
3 231 260 264 
3 260 263 264 
3 263 265 264 
3 261 231 264 
3 265 266 264 
3 266 261 264 
3 24 261 25 
3 261 230 231 
3 261 28 25 
3 26 28 261 
3 261 24 230 
3 261 266 259 
3 219 267 268 
3 267 269 268 
3 268 220 219 
3 268 221 220 
3 270 268 269 
3 219 221 268 
3 221 186 268 
3 186 219 268 
3 270 223 268 
3 223 221 268 
3 271 272 121 
3 272 271 273 
3 271 134 131 
3 219 220 271 
3 220 274 271 
3 134 271 274 
3 271 131 219 
3 271 121 273 
3 275 270 274 
3 135 274 220 
3 276 274 277 
3 274 276 137 
3 137 278 274 
3 275 274 278 
3 274 270 277 
3 135 134 274 
3 270 279 277 
3 279 269 277 
3 272 276 277 
3 277 269 280 
3 281 277 280 
3 281 282 277 
3 282 272 277 
3 120 283 284 
3 285 120 284 
3 120 286 283 
3 287 120 285 
3 120 129 286 
3 129 120 287 
3 117 120 288 
3 120 126 288 
3 283 285 284 
3 286 285 283 
3 289 47 283 
3 47 284 283 
3 284 289 283 
3 48 283 49 
3 283 47 49 
3 47 283 48 
3 286 290 285 
3 290 287 285 
3 284 291 154 
3 144 284 154 
3 284 144 291 
3 284 152 289 
3 152 284 47 
3 278 137 134 
3 130 134 220 
3 134 135 220 
3 135 134 130 
3 278 134 135 
3 121 258 131 
3 123 292 121 
3 272 255 121 
3 292 273 121 
3 128 131 184 
3 131 128 133 
3 131 258 219 
3 130 131 133 
3 210 239 293 
3 210 211 239 
3 293 239 240 
3 211 209 210 
3 211 210 293 
3 211 293 240 
3 204 211 243 
3 199 209 211 
3 211 240 243 
3 294 223 222 
3 224 294 222 
3 294 225 223 
3 294 224 225 
3 223 11 269 
3 267 223 269 
3 223 267 11 
3 223 267 186 
3 223 225 267 
3 225 224 223 
3 223 295 221 
3 295 223 270 
3 270 269 279 
3 296 270 275 
3 296 221 270 
3 295 270 221 
3 269 267 281 
3 269 281 280 
3 269 11 13 
3 280 269 13 
3 280 12 269 
3 267 269 12 
3 297 298 299 
3 297 300 301 
3 297 302 303 
3 297 301 304 
3 298 297 304 
3 297 303 300 
3 299 302 297 
3 299 253 281 
3 305 299 298 
3 302 299 281 
3 305 253 299 
3 306 305 298 
3 189 306 298 
3 307 298 304 
3 189 298 307 
3 188 301 306 
3 301 188 189 
3 281 308 301 
3 267 281 301 
3 301 189 304 
3 308 306 301 
3 300 192 301 
3 192 267 301 
3 275 135 220 
3 296 275 220 
3 275 278 135 
3 135 130 220 
3 219 220 221 
3 221 296 220 
3 190 225 186 
3 190 186 192 
3 186 267 192 
3 309 115 310 
3 311 309 310 
3 309 311 115 
3 312 313 309 
3 313 314 309 
3 315 309 316 
3 309 317 318 
3 316 309 318 
3 312 309 315 
3 309 314 317 
3 319 314 320 
3 314 321 320 
3 321 314 319 
3 314 313 319 
3 314 319 315 
3 314 320 316 
3 314 315 320 
3 314 316 317 
3 322 315 319 
3 312 322 319 
3 320 322 319 
3 322 202 319 
3 319 202 321 
3 319 313 312 
3 322 323 319 
3 323 201 319 
3 201 322 319 
3 245 323 319 
3 323 324 319 
3 324 245 319 
3 325 324 319 
3 324 313 319 
3 325 319 326 
3 319 313 326 
3 312 327 323 
3 312 328 322 
3 328 312 315 
3 328 312 323 
3 328 329 312 
3 327 312 330 
3 312 115 330 
3 312 329 115 
3 255 272 282 
3 276 272 273 
3 258 255 282 
3 253 258 254 
3 253 255 258 
3 219 258 282 
3 331 332 127 
3 257 331 127 
3 331 333 332 
3 331 257 333 
3 333 257 332 
3 332 257 184 
3 129 127 332 
3 128 129 332 
3 332 184 183 
3 128 332 182 
3 332 334 182 
3 332 183 334 
3 257 128 184 
3 257 127 128 
3 184 257 335 
3 257 254 335 
3 254 257 184 
3 336 263 262 
3 263 336 337 
3 338 265 263 
3 337 259 263 
3 336 338 263 
3 259 336 263 
3 337 336 262 
3 339 235 337 
3 337 340 341 
3 336 337 341 
3 337 336 340 
3 259 337 340 
3 337 235 340 
3 339 337 262 
3 336 342 343 
3 342 336 341 
3 336 259 340 
3 338 336 343 
3 241 339 262 
3 344 345 346 
3 344 347 348 
3 347 344 349 
3 344 346 349 
3 348 350 344 
3 350 345 344 
3 345 351 346 
3 350 351 345 
3 348 347 351 
3 343 342 351 
3 347 343 351 
3 346 351 349 
3 342 349 351 
3 348 351 350 
3 267 219 281 
3 282 281 219 
3 280 281 300 
3 300 281 267 
3 303 280 300 
3 300 267 192 
3 281 253 308 
3 280 302 281 
3 203 202 199 
3 189 192 187 
3 187 352 189 
3 188 352 187 
3 228 259 235 
3 235 339 241 
3 237 235 353 
3 235 237 354 
3 237 228 235 
3 233 235 242 
3 235 354 233 
3 353 235 233 
3 235 259 340 
3 242 235 241 
3 347 259 343 
3 259 228 340 
3 228 259 347 
3 343 259 266 
3 355 356 357 
3 358 355 359 
3 355 360 359 
3 360 355 357 
3 361 356 355 
3 358 361 355 
3 97 99 355 
3 99 98 355 
3 98 97 355 
3 357 356 359 
3 360 357 359 
3 356 358 359 
3 361 358 356 
3 358 359 362 
3 359 363 362 
3 363 359 358 
3 152 153 364 
3 152 364 365 
3 150 152 365 
3 364 152 327 
3 152 364 47 
3 329 152 47 
3 323 365 152 
3 365 327 152 
3 323 152 329 
3 152 47 289 
3 364 153 160 
3 364 160 365 
3 160 150 365 
3 253 254 308 
3 254 306 308 
3 305 254 253 
3 305 306 254 
3 189 188 306 
3 254 306 335 
3 306 254 185 
3 335 306 195 
3 306 188 195 
3 306 185 188 
3 189 307 304 
3 352 188 189 
3 246 210 245 
3 209 210 245 
3 210 366 245 
3 209 366 210 
3 246 365 323 
3 246 324 365 
3 246 245 324 
3 245 246 323 
3 201 245 209 
3 366 209 245 
3 115 117 288 
3 118 115 117 
3 115 316 117 
3 117 316 141 
3 367 117 141 
3 117 367 288 
3 126 117 288 
3 368 369 370 
3 369 368 371 
3 369 372 370 
3 371 372 369 
3 42 369 43 
3 369 41 43 
3 41 369 42 
3 371 368 370 
3 372 371 370 
3 146 207 201 
3 201 373 322 
3 373 201 144 
3 144 201 328 
3 328 201 323 
3 374 348 375 
3 348 376 375 
3 374 376 348 
3 377 375 347 
3 347 349 377 
3 375 228 347 
3 378 379 380 
3 381 378 380 
3 381 22 378 
3 379 378 23 
3 20 378 22 
3 23 378 20 
3 379 382 380 
3 379 381 382 
3 19 381 379 
3 19 379 23 
3 382 381 380 
3 19 22 381 
3 39 380 40 
3 380 38 40 
3 38 380 39 
3 128 182 133 
3 183 184 185 
3 185 184 335 
3 254 184 185 
3 115 311 310 
3 316 115 315 
3 310 330 115 
3 115 330 48 
3 115 328 315 
3 310 115 118 
3 115 329 330 
3 329 115 288 
3 329 328 115 
3 320 315 383 
3 328 315 322 
3 328 383 315 
3 373 288 383 
3 383 288 367 
3 288 291 328 
3 373 291 288 
3 328 329 288 
3 363 358 384 
3 358 362 384 
3 302 280 303 
3 12 280 13 
3 303 302 385 
3 386 302 303 
3 302 387 385 
3 302 386 387 
3 386 303 385 
3 124 388 118 
3 389 124 118 
3 140 388 124 
3 389 140 124 
3 124 140 139 
3 140 389 388 
3 388 390 118 
3 388 389 390 
3 390 389 118 
3 118 137 273 
3 123 310 118 
3 391 123 118 
3 390 391 118 
3 390 118 273 
3 316 320 383 
3 317 316 318 
3 141 316 392 
3 316 367 392 
3 316 383 367 
3 367 141 392 
3 154 393 143 
3 393 144 143 
3 291 393 154 
3 291 144 328 
3 373 144 291 
3 291 144 393 
3 394 395 396 
3 397 394 396 
3 394 397 395 
3 397 394 35 
3 394 36 35 
3 397 36 394 
3 396 395 398 
3 395 399 398 
3 395 397 399 
3 399 397 396 
3 397 35 29 
3 37 397 29 
3 37 36 397 
3 399 396 398 
3 129 287 290 
3 286 129 290 
3 136 130 135 
3 136 132 130 
3 130 132 133 
3 137 138 135 
3 343 400 338 
3 338 400 265 
3 61 343 266 
3 343 61 400 
3 349 342 341 
3 327 329 47 
3 329 328 323 
3 329 327 330 
3 47 364 327 
3 324 327 365 
3 327 313 323 
3 313 327 324 
3 328 323 322 
3 313 324 323 
3 401 165 169 
3 166 401 169 
3 402 401 166 
3 401 402 165 
3 165 166 169 
3 165 168 403 
3 402 167 165 
3 165 403 169 
3 167 402 166 
3 403 168 169 
3 247 404 375 
3 405 249 404 
3 406 404 236 
3 404 247 236 
3 406 405 404 
3 404 374 375 
3 404 249 374 
3 249 247 375 
3 249 405 247 
3 374 249 375 
3 247 249 248 
3 247 248 375 
3 247 228 248 
3 236 247 375 
3 247 229 228 
3 229 247 236 
3 247 406 236 
3 247 405 406 
3 248 228 375 
3 236 375 377 
3 376 374 375 
3 240 233 242 
3 354 353 233 
3 377 237 236 
3 354 237 353 
3 341 237 377 
3 237 341 340 
3 228 237 340 
3 146 206 147 
3 146 145 205 
3 206 27 147 
3 205 27 206 
3 205 145 407 
3 407 145 147 
3 408 266 265 
3 408 409 266 
3 409 400 266 
3 400 61 266 
3 61 60 266 
3 60 28 266 
3 59 61 266 
3 28 59 266 
3 400 408 265 
3 408 400 409 
3 349 341 377 
3 225 190 267 
3 267 190 192 
3 27 407 147 
3 185 335 195 
3 391 123 330 
3 310 391 330 
3 391 310 123 
3 391 390 123 
3 123 390 292 
3 330 123 48 
3 387 386 385 
3 334 183 182 
3 325 326 324 
3 324 326 313 
3 410 411 412 
3 413 410 412 
3 410 413 411 
3 411 413 412 
3 414 372 415 
3 416 414 415 
3 414 416 372 
3 372 416 415 
3 415 417 418 
3 419 415 418 
3 415 419 417 
3 292 390 273 
3 390 273 137 
3 276 390 137 
3 390 276 273 
3 231 242 241 
3 420 421 422 
3 423 420 422 
3 420 423 421 
3 421 423 422 
3 94 421 96 
3 421 93 96 
3 93 421 94 
3 320 202 322 
3 322 373 328 
3 140 141 139 
3 202 320 321 
3 417 419 418 
3 398 424 425 
3 426 398 425 
3 398 426 424 
3 328 373 383 
3 205 407 27 
3 11 267 12 
3 352 427 428 
3 352 429 427 
3 430 352 428 
3 430 429 352 
3 427 429 428 
3 428 429 431 
3 429 430 431 
3 430 428 431 
3 362 363 384 
3 384 432 362 
3 432 433 362 
3 433 384 362 
3 27 230 24 
3 27 26 230 
3 384 433 432 
3 243 240 242 
3 434 435 436 
3 437 434 436 
3 434 437 435 
3 435 437 436 
3 438 439 440 
3 441 438 440 
3 438 441 439 
3 439 441 440 
3 10 176 177 
3 176 6 5 
3 176 177 6 
3 9 176 5 
3 9 177 176 
3 8 177 10 
3 177 9 10 
3 6 177 8 
3 424 426 425 
3 442 443 444 
3 445 442 444 
3 442 14 16 
3 15 442 16 
3 442 15 14 
3 442 446 443 
3 442 445 446 
3 443 445 444 
3 446 447 443 
3 447 445 443 
3 446 445 447 
3 448 449 0 
3 16 0 449 
3 449 448 16 
3 450 448 0 
3 450 0 16 
3 448 450 16 

CELL_DATA 996
SCALARS Materials int
LOOKUP_TABLE default
65 65 65 65 65 65 65 65 65 
65 65 65 65 65 65 65 65 65 
65 65 65 65 65 65 65 65 65 
65 65 65 65 65 65 65 65 65 
65 65 65 65 65 65 65 65 65 
65 65 65 65 65 65 65 65 65 
65 65 65 65 65 65 65 65 65 
65 65 65 65 65 65 65 65 65 
65 65 65 65 65 65 65 65 65 
65 65 65 65 65 65 65 65 65 
65 65 65 65 65 65 65 65 65 
65 65 65 65 65 65 65 65 65 
65 65 65 65 65 65 65 65 65 
65 65 65 65 65 65 65 65 65 
65 65 65 65 65 65 65 65 65 
65 65 65 65 65 65 65 65 65 
65 65 65 65 65 65 65 65 65 
65 65 65 65 65 65 65 65 65 
65 65 65 65 65 65 65 65 65 
65 65 65 65 65 65 65 65 65 
65 65 65 65 65 65 65 65 65 
65 65 65 65 65 65 65 65 65 
65 65 65 65 65 65 65 65 65 
65 65 65 65 65 65 65 65 65 
65 65 65 65 65 65 65 65 65 
65 65 65 65 65 65 65 65 65 
65 65 65 65 65 65 65 65 65 
65 65 65 65 65 65 65 65 65 
65 65 65 65 65 65 65 65 65 
65 65 65 65 65 65 65 65 65 
65 65 65 65 65 65 65 65 65 
65 65 65 65 65 65 65 65 65 
65 65 65 65 65 65 65 65 65 
65 65 65 65 65 65 65 65 65 
65 65 65 65 65 65 65 65 65 
65 65 65 65 65 65 65 65 65 
65 65 65 65 65 65 65 65 65 
65 65 65 65 65 65 65 65 65 
65 65 65 65 65 65 65 65 65 
65 65 65 65 65 65 65 65 65 
65 65 65 65 65 65 65 65 65 
65 65 65 65 65 65 65 65 65 
65 65 65 65 65 65 65 65 65 
65 65 65 65 65 65 65 65 65 
65 65 65 65 65 65 65 65 65 
65 65 65 65 65 65 65 65 65 
65 65 65 65 65 65 65 65 65 
65 65 65 65 65 65 65 65 65 
65 65 65 65 65 65 65 65 65 
65 65 65 65 65 65 65 65 65 
65 65 65 65 65 65 65 65 65 
65 65 65 65 65 65 65 65 65 
65 65 65 65 65 65 65 65 65 
65 65 65 65 65 65 65 65 65 
65 65 65 65 65 65 65 65 65 
65 65 65 65 65 65 65 65 65 
65 65 65 65 65 65 65 65 65 
65 65 65 65 65 65 65 65 65 
65 65 65 65 65 65 65 65 65 
65 65 65 65 65 65 65 65 65 
65 65 65 65 65 65 65 65 65 
65 65 65 65 65 65 65 65 65 
65 65 65 65 65 65 65 65 65 
65 65 65 65 65 65 65 65 65 
65 65 65 65 65 65 65 65 65 
65 65 65 65 65 65 65 65 65 
65 65 65 65 65 65 65 65 65 
65 65 65 65 65 65 65 65 65 
65 65 65 65 65 65 65 65 65 
65 65 65 65 65 65 65 65 65 
65 65 65 65 65 65 65 65 65 
65 65 65 65 65 65 65 65 65 
65 65 65 65 65 65 65 65 65 
65 65 65 65 65 65 65 65 65 
65 65 65 65 65 65 65 65 65 
65 65 65 65 65 65 65 65 65 
65 65 65 65 65 65 65 65 65 
65 65 65 65 65 65 65 65 65 
65 65 65 65 65 65 65 65 65 
65 65 65 65 65 65 65 65 65 
65 65 65 65 65 65 65 65 65 
65 65 65 65 65 65 65 65 65 
65 65 65 65 65 65 65 65 65 
65 65 65 65 65 65 65 65 65 
65 65 65 65 65 65 65 65 65 
65 65 65 65 65 65 65 65 65 
65 65 65 65 65 65 65 65 65 
65 65 65 65 65 65 65 65 65 
65 65 65 65 65 65 65 65 65 
65 65 65 65 65 65 65 65 65 
65 65 65 65 65 65 65 65 65 
65 65 65 65 65 65 65 65 65 
65 65 65 65 65 65 65 65 65 
65 65 65 65 65 65 65 65 65 
65 65 65 65 65 65 65 65 65 
65 65 65 65 65 65 65 65 65 
65 65 65 65 65 65 65 65 65 
65 65 65 65 65 65 65 65 65 
65 65 65 65 65 65 65 65 65 
65 65 65 65 65 65 65 65 65 
65 65 65 65 65 65 65 65 65 
65 65 65 65 65 65 65 65 65 
65 65 65 65 65 65 65 65 65 
65 65 65 65 65 65 65 65 65 
65 65 65 65 65 65 65 65 65 
65 65 65 65 65 65 65 65 65 
65 65 65 65 65 65 65 65 65 
65 65 65 65 65 65 65 65 65 
65 65 65 65 65 65 65 65 65 
65 65 65 65 65 65 65 65 65 
65 65 65 65 65 65 
