# vtk DataFile Version 3.0
vtk output
ASCII
DATASET UNSTRUCTURED_GRID
POINTS 451 float
147.998 173.541 71.1219 135.286 175.729 63.187 142.799 159.723 58.4998 
132.794 159.441 70.7438 147.881 199.021 124.186 153.598 203.142 114.11 
154.803 212.794 121.633 164.936 204.507 130.358 217.366 189.636 5.56284 
208.202 198.881 5.8722 224.764 199.603 9.392 218.464 204.317 -0.0180551 
276.208 129.234 -0.0239648 270.772 141.567 13.5163 281.145 150.184 -0.0167946 
264.638 136.201 0.067435 129.771 191.291 26.4554 141.158 190.56 11.8438 
124.878 189.54 14.8258 132.8 201.501 16.06 138.583 177.105 130.444 
135.375 183.374 143.131 128.732 170.843 146.396 146.111 177.531 140.555 
122.655 172.692 22.0089 134.221 169.375 36.2935 130.287 163.909 16.6529 
130.774 179.001 29.6482 147.819 192.865 161.301 162.116 182.852 168.358 
148.041 179.069 170.185 158.612 179.888 152.772 157.526 188.017 140.945 
159.982 177.041 134.114 167.72 187.473 130.778 172.156 181.123 151.121 
160.703 200.576 146.339 173.844 199.238 141.604 163.853 213.974 149.071 
127.172 175.758 10.421 129.442 191.381 -0.067212 169.241 195.204 47.5231 
156.485 183.481 49.3431 171.126 184.734 53.2095 164.579 187.977 62.8071 
146.181 191.498 174.492 133.348 180.953 188.625 130.806 194.759 190.197 
134.313 200.279 178.303 151.386 160.539 26.8055 154.353 165.122 39.09 
152.543 150.474 35.6516 164.898 159.439 24.3111 140.003 184.275 80.6237 
150.891 200.571 83.9771 135.365 195.919 89.2735 146.942 192.351 94.6909 
146.314 158.727 46.3773 155.254 172.282 55.4413 142.189 174.284 44.2421 
166.168 170.917 161.113 151.253 167.564 153.817 133.736 147.036 -0.0215438 
142.717 156.935 8.8273 125.656 162.358 0.0324408 124.502 150.709 8.57972 
148.275 148.644 21.3702 158.351 142.89 12.2905 160.409 158.45 11.1664 
172.784 186.681 5.10893 171.404 184.703 18.6091 169.918 195.791 12.8176 
160.526 186.975 5.63279 143.949 137.978 30.5655 140.22 158.948 34.2922 
139.374 176.194 16.7333 159.3 151.094 99.1801 152.694 148.206 111.525 
155.215 161.545 116.006 155.721 167.305 104.767 166.556 166.005 41.4272 
155.703 177.598 38.2556 151.876 205.704 67.7469 136.642 197.506 54.1113 
151.195 194.908 51.7008 150.148 188.275 64.6026 136.009 187.918 200.702 
154.05 179.887 199.359 152.286 191.604 204.823 142.796 176.146 204.8 
180.475 209.188 193.253 186.961 222.711 204.784 168.748 216.647 204.831 
188.077 206.947 204.809 151.308 173.959 26.0099 164.533 174.518 0.0115224 
163.881 175.342 16.1503 138.385 178.113 153.984 141.164 165.117 144.745 
140.428 202.959 0.856567 151.345 179.761 184.765 146.799 195.119 187.259 
273.746 187.748 199.93 282.496 188.278 185.779 284.171 179.502 198.531 
272.175 177.026 180.557 158.902 188.901 106.205 173.032 199.175 115.984 
165.106 207.92 111.113 161.805 194.215 119.502 158.083 186.522 22.1653 
145.678 210.269 54.1347 174.151 193.447 26.7506 157.767 200.377 20.5058 
154.392 199.094 0.582995 167.302 171.082 143.284 168.168 174.728 124.072 
162.743 162.695 127.246 141.064 165.356 82.4005 130.416 172.516 79.315 
24.8534 134.227 164.555 27.0865 147.398 161.808 10.5548 139.027 159.84 
10.6109 139.731 172.19 157.276 184.381 124.89 149.658 175.02 125.671 
152.886 161.778 138.3 173.803 220.311 187.95 159.969 206.252 193.049 
60.617 180.3 0.57223 64.4268 186.459 13.6412 70.6811 172.164 0.0502086 
69.8814 189.333 -0.000667289 138.533 183.938 52.0225 141.704 189.39 40.7387 
139.558 157.51 21.9464 147.552 202.11 12.3116 151.416 167.309 90.348 
143.432 164.143 101.667 136.484 176.616 93.519 273.731 166.959 194.154 
173.09 165.711 7.2255 182.133 181.719 13.4854 179.099 176.902 0.0567693 
143.622 154.287 69.2051 152.116 146.759 76.0676 147.088 143.359 65.546 
153.99 160.874 69.0841 166.688 184.761 30.5953 142.229 150.402 98.2566 
130.348 162.163 96.4917 138.728 207.188 118.34 142.539 201.901 108.052 
141.503 191.724 114.661 30.5625 114.996 172.782 34.9687 107.55 163.788 
36.3457 108.061 181.509 28.1054 98.4227 168.822 135.987 190.306 67.2293 
132.575 147.9 59.6153 134.831 163.108 47.2499 137.829 149.826 45.6158 
142.498 198.547 204.692 149.342 208.405 204.786 161.716 200.711 204.801 
125.366 165.579 57.905 156.217 179.293 97.8551 167.47 177.502 103.027 
157.969 175.821 113.833 229.297 172.368 10.2187 218.952 179.461 13.3982 
230.564 189.389 12.9282 227.694 181.913 0.0920652 180.181 208.953 168.611 
171.754 216.798 162.925 169.548 204.158 162.438 165.178 206.195 178.44 
159.713 167.238 176.199 176.353 194.842 170.44 168.665 188.336 183.191 
158.971 194.424 176.577 138.802 189.342 130.391 132.573 194.655 139.369 
150.577 206.537 135.182 138.252 206.255 189.485 136.163 217.439 204.741 
124.998 207.016 189.678 130.779 200.822 203.453 174.655 198.602 204.796 
137.61 179.516 -0.00500037 129.153 205.426 134.904 177.091 196.968 -0.0160709 
139.487 199.215 76.8051 140.505 198.032 27.7191 157.337 190.647 35.4784 
149.395 206.459 39.4306 170.802 160.608 77.2012 167.313 172.399 72.825 
159.505 155.155 80.8063 163.859 175.253 88.8067 168.525 155.965 137.521 
157.923 193.627 193.403 193.162 173.031 0.0647996 186.399 187.766 0.072485 
127.482 188.167 46.8166 132.58 199.538 41.2336 167.605 150.842 122.155 
171.332 164.068 118.096 172.291 151.765 110.153 167.25 162.349 106.274 
181.448 211.636 156.271 175.355 199.683 184.321 232.228 87.6423 191.563 
244.44 84.4939 194.66 235.04 80.7897 180.227 246.075 90.0896 176.749 
175.065 197.33 103.515 23.6535 152.276 191.892 21.921 147.749 174.964 
8.75042 150.371 183.585 19.3066 161.813 181.543 124.22 204.806 0.0411362 
169.65 165.04 54.1108 165.062 153.412 64.3672 140.319 171.204 186.405 
92.9854 236.214 193.942 85.6567 239.785 204.853 107.428 240.974 204.783 
91.9721 251.852 204.746 143.981 169.187 114.601 142.342 152.057 80.9614 
151.524 147.431 128.29 138.75 156.13 113.674 21.9398 166.124 197.171 
22.5705 173.179 186.488 7.16615 168.984 189.906 44.3555 97.4634 173.287 
45.4235 102.754 158.946 146.475 179.252 105.71 131.799 175.335 115.206 
131.735 164.926 108.488 166.559 185.205 197.668 143.051 192.915 145.269 
167.591 191.786 158.28 157.545 208.78 165.393 152.891 169.018 6.09749 
150.322 210.7 0.0158349 139.988 217.391 0.0519738 148.78 215.234 13.1576 
148.243 229.263 -0.058604 286.534 169.208 185.212 278.602 167.479 175.262 
177.988 180.25 169.205 130.746 191.311 159.554 133.844 183.778 170.662 
164.922 153.826 43.4647 275.065 155.622 177.98 288.138 159.176 176.041 
274.744 150.631 166.034 126.173 144.544 73.5178 266.725 191.329 189.135 
123.498 164.413 39.6381 124.549 158.072 27.5866 157.419 162.718 164.743 
142.944 166.103 175.65 158.401 222.471 0.0616499 266.036 196.935 158.53 
258.862 187.131 161.908 269.732 187.83 150.706 268.791 186.463 169.652 
148.391 164.271 192.35 126.874 199.629 80.096 166.865 178.185 44.0196 
165.671 172.724 30.465 40.1491 135.343 98.8792 34.7991 129.688 88.7526 
34.5839 146.565 96.3802 42.308 144.87 86.9202 266.127 156.317 13.7228 
259.284 148.6 -0.0307562 31.1612 92.6862 153.561 43.8558 95.1172 146.384 
47.3391 90.0786 157.593 271.67 133.579 191.943 273.892 149.71 190.905 
279.531 137.373 204.86 285.284 141.631 188.02 128.908 174.956 45.745 
124.734 187.007 77.6068 162.63 211.005 0.0940931 171.794 175.55 184.431 
160.489 171.88 191.318 157.179 159.822 52.0858 155.871 146.93 53.609 
281.87 120.961 170.279 263.567 128.201 172.96 270.018 121.608 161.496 
264.726 115.026 179.351 250.072 167.415 11.1645 256.962 169.047 0.0401951 
246.388 154.351 0.059311 243.153 168.095 -0.0398557 136.277 188.562 101.62 
156.858 150.901 0.0161685 82.8129 186.223 6.87121 280.101 122.059 185.678 
267.526 121.748 189.781 276.754 129.879 176.895 131.733 146.526 26.3167 
217.84 194.63 20.1212 172.46 163.203 89.8846 55.09 169.321 11.8911 
167.807 184.045 114.052 267.656 176.822 204.867 125.685 203.132 164.49 
132.29 217.671 168.776 143.442 205.303 167.882 146.828 138.172 45.0121 
28.6951 129.435 204.782 25.3791 136.43 189.649 29.5729 119.956 192.751 
14.6957 124.08 196.636 139.729 158.217 129.539 141.056 167.473 162.477 
74.9978 197.514 13.6101 81.5826 196.249 -0.0309566 72.2176 204.12 0.0975868 
185.739 220.218 192.876 24.3909 128.094 146.558 33.9979 123.422 160.527 
13.9191 127.142 160.523 123.881 217.968 199.562 153.056 201.653 101.916 
161.555 189.861 91.8701 164.392 219.214 175.208 158.854 221.642 191.07 
69.3359 78.9996 108.997 63.0222 86.5926 119.603 54.5983 84.2703 108.329 
64.7885 72.659 124.139 58.353 168.155 0.019894 273.779 137.74 160.209 
286.987 140.343 155.127 276.126 131.431 148.992 269.567 144.341 146.776 
28.2515 123.883 181.085 157.602 185.043 77.0212 167.013 198.983 77.7558 
144.284 220.711 195.574 124.739 194.911 107.806 215.278 168.719 -0.0585211 
206.181 180.934 -0.0156855 138.099 139.312 53.2307 18.9858 115.184 182.728 
33.2746 214.214 192.405 39.5973 214.348 204.808 51.1619 225.182 193.125 
34.5799 226.417 204.777 260.253 103.731 179.897 263.498 110.164 193.158 
267.508 95.5099 192.772 272.752 102.776 180.496 253.199 97.409 187.521 
170.612 159.229 152.24 147.299 209.787 25.6736 219.304 209.066 14.9691 
205.486 213.121 1.37967 25.7292 185.589 185.93 34.1917 202.415 178.499 
23.6991 192.925 172.645 27.7017 198.748 191.038 248.098 217.998 185.647 
259.541 204.692 192.433 259.772 212.984 183.506 251.458 221.571 197.591 
31.0137 118.372 133.58 38.8882 111.359 144.214 21.2328 110.711 143.199 
253.043 86.911 167.163 243.491 90.9729 159.157 254.687 98.2675 160.822 
258.174 78.9519 159.139 47.6857 180.698 -0.0428466 42.5049 163.56 -0.0255513 
134.296 214.18 180.633 265.755 139.745 204.775 272.058 152.104 204.843 
50.7779 102.904 204.823 37.8555 99.2593 204.791 45.2429 94.1729 192.866 
48.934 90.6039 204.795 148.566 141.175 102.675 151.063 141.366 87.1691 
27.2322 169.187 144.918 26.4698 154.668 142.525 24.1323 167.03 157.271 
9.34497 162.279 150.724 130.465 157.628 83.8482 81.0084 244.05 192.782 
74.3164 231.317 204.869 73.6868 247.07 204.76 257.456 145.446 13.3524 
251.517 156.746 18.7777 164.093 161.719 -0.0183961 171.974 152.379 0.0356889 
136.821 205.596 152.52 276.17 110.574 190.313 276.842 111.902 204.088 
224.905 181.724 24.6629 133.558 144.739 88.9308 138.55 166.117 -0.0465878 
267.684 207.688 204.76 278.999 199.363 203.948 258.949 192.45 204.823 
148.5 187.174 -0.0749603 181.904 199.775 160.762 199.035 222.591 177.276 
210.522 228.183 189.886 208.511 231.647 177.405 194.318 228.834 191.583 
196.807 184.97 11.2427 263.624 113.931 204.81 139.423 213.058 140.838 
54.4546 66.8043 109.971 16.5323 133.964 204.845 266.082 120.886 -0.010706 
268.475 129.348 10.2453 254.574 127.194 0.0192306 101.514 63.8532 180.109 
98.2159 73.2087 168.201 110.971 70.4731 171.441 95.7705 60.7096 167.244 
124.563 199.745 51.0348 69.8124 240.104 187.874 25.4666 104.703 189.211 
26.3518 141.738 204.784 130.83 223.28 188.506 146.646 215.2 184.406 
137.291 145.329 13.8031 260.655 82.5266 147.566 128.363 170.587 132.135 
154.365 227.64 12.0337 53.6885 181.368 10.5589 48.3384 222.983 204.788 
58.3668 88.3008 197.023 57.3792 84.369 181.589 61.4854 77.2892 190.501 
47.9536 75.4604 187.744 238.369 225.967 195.676 249.927 232.395 204.831 
242.591 217.742 204.787 
CELLS 505 2525
4 0 1 2 3 
4 4 5 6 7 
4 8 9 10 11 
4 12 13 14 15 
4 16 17 18 19 
4 20 21 22 23 
4 24 25 26 27 
4 28 29 30 31 
4 32 33 34 35 
4 36 37 7 38 
4 17 39 18 40 
4 41 42 43 44 
4 45 46 47 48 
4 49 50 51 52 
4 53 54 55 56 
4 57 2 58 59 
4 31 60 30 61 
4 62 63 64 65 
4 66 67 68 52 
4 69 70 71 72 
4 73 51 66 74 
4 39 75 17 18 
4 76 77 78 79 
4 50 58 80 81 
4 82 83 84 85 
4 86 87 88 89 
4 90 91 92 93 
4 94 25 27 75 
4 95 96 69 72 
4 22 21 97 98 
4 17 40 19 99 
4 46 100 101 86 
4 22 23 21 98 
4 102 103 104 105 
4 106 107 108 109 
4 71 70 110 72 
4 82 111 84 83 
4 112 110 113 71 
4 72 114 113 71 
4 115 33 116 117 
4 101 46 47 45 
4 118 119 0 3 
4 120 121 122 123 
4 32 124 33 23 
4 33 125 117 126 
4 0 1 3 119 
4 90 127 128 92 
4 129 130 131 132 
4 83 84 133 134 
4 94 25 75 135 
4 114 99 17 136 
4 137 118 138 139 
4 102 104 140 105 
4 141 69 142 143 
4 144 145 146 147 
4 112 148 113 110 
4 149 150 138 118 
4 4 151 152 153 
4 101 45 47 48 
4 7 34 36 32 
4 154 155 156 157 
4 158 85 1 133 
4 159 160 2 161 
4 101 86 162 47 
4 163 164 128 92 
4 165 1 2 160 
4 72 114 136 113 
4 166 79 167 168 
4 169 170 171 172 
4 173 174 175 176 
4 141 96 69 95 
4 30 177 29 100 
4 178 179 180 29 
4 83 84 85 133 
4 181 182 183 4 
4 70 96 148 110 
4 17 40 18 19 
4 23 33 115 126 
4 184 185 186 187 
4 90 92 128 188 
4 189 75 17 39 
4 181 190 182 4 
4 112 70 110 71 
4 69 72 71 191 
4 53 192 55 54 
4 141 96 142 69 
4 70 96 110 72 
4 101 162 184 47 
4 113 193 194 195 
4 196 197 198 199 
4 126 115 200 117 
4 88 164 201 163 
4 202 143 142 203 
4 134 16 204 205 
4 206 207 208 209 
4 210 173 174 175 
4 211 179 180 178 
4 212 213 214 215 
4 106 216 108 107 
4 217 218 219 220 
4 40 221 18 19 
4 197 222 223 147 
4 75 25 27 26 
4 73 161 51 74 
4 224 100 46 89 
4 225 226 227 228 
4 229 138 79 78 
4 230 145 146 144 
4 193 17 16 19 
4 231 78 77 232 
4 160 1 2 59 
4 220 233 234 235 
4 157 155 236 237 
4 90 93 92 188 
4 211 176 201 128 
4 32 124 34 33 
4 238 239 139 240 
4 201 164 88 241 
4 45 180 101 100 
4 181 242 21 23 
4 243 29 180 28 
4 164 188 128 92 
4 175 244 180 176 
4 6 151 5 4 
4 68 245 94 96 
4 137 0 147 118 
4 65 63 64 26 
4 246 247 248 249 
4 250 140 105 251 
4 35 252 29 60 
4 253 28 45 254 
4 255 50 80 52 
4 134 16 205 193 
4 256 257 258 251 
4 144 230 3 259 
4 36 34 37 32 
4 97 31 23 242 
4 260 103 102 105 
4 121 120 218 123 
4 148 194 113 110 
4 24 261 262 25 
4 30 263 177 264 
4 265 246 248 249 
4 266 267 268 269 
4 270 87 100 224 
4 192 271 53 55 
4 178 29 180 243 
4 80 81 272 273 
4 274 275 276 277 
4 138 240 139 150 
4 13 278 14 279 
4 95 245 96 72 
4 237 280 281 282 
4 283 284 285 286 
4 287 27 204 134 
4 271 288 53 55 
4 46 87 86 89 
4 243 252 29 35 
4 149 232 138 240 
4 114 289 71 191 
4 141 69 143 95 
4 243 37 32 36 
4 46 100 87 89 
4 100 290 179 291 
4 162 86 187 47 
4 147 292 293 2 
4 294 295 296 297 
4 298 299 300 301 
4 264 30 254 224 
4 97 28 31 242 
4 201 188 241 211 
4 239 139 302 238 
4 223 292 255 293 
4 63 303 245 68 
4 56 302 153 152 
4 51 50 255 52 
4 5 106 108 109 
4 80 50 255 292 
4 159 165 2 160 
4 130 304 131 132 
4 180 29 179 100 
4 126 23 61 115 
4 50 94 273 49 
4 30 177 100 264 
4 283 305 306 307 
4 308 73 66 74 
4 170 8 309 171 
4 76 137 310 198 
4 149 138 137 118 
4 31 29 243 28 
4 128 188 201 211 
4 0 53 1 119 
4 194 134 84 195 
4 35 37 32 243 
4 142 96 70 69 
4 31 60 35 29 
4 50 57 58 59 
4 112 194 113 148 
4 201 176 180 128 
4 311 130 131 129 
4 107 106 216 312 
4 59 287 133 134 
4 313 104 140 102 
4 224 87 100 89 
4 272 42 194 81 
4 51 293 255 292 
4 50 58 81 59 
4 20 181 21 23 
4 314 315 48 316 
4 33 115 34 35 
4 23 31 32 242 
4 155 236 156 157 
4 101 100 87 86 
4 317 57 293 51 
4 59 27 287 134 
4 109 106 107 312 
4 318 319 320 321 
4 232 229 322 78 
4 30 323 263 264 
4 324 325 132 326 
4 127 327 92 90 
4 161 160 57 74 
4 328 329 120 330 
4 68 94 245 49 
4 50 49 273 52 
4 250 140 251 256 
4 186 331 185 184 
4 332 333 56 54 
4 178 176 180 211 
4 334 127 335 176 
4 72 114 71 191 
4 106 333 216 167 
4 336 337 338 339 
4 311 131 340 129 
4 254 45 48 46 
4 49 94 74 50 
4 254 46 48 47 
4 49 94 273 52 
4 52 49 94 96 
4 49 68 94 96 
4 239 302 153 238 
4 341 342 343 344 
4 148 81 272 194 
4 320 319 345 321 
4 333 346 54 347 
4 29 60 30 31 
4 178 175 180 176 
4 163 185 348 184 
4 23 32 31 33 
4 232 78 322 231 
4 59 287 27 25 
4 147 58 292 2 
4 52 68 96 141 
4 31 35 243 29 
4 32 35 243 31 
4 20 98 23 22 
4 302 349 153 152 
4 50 81 80 273 
4 21 23 97 98 
4 66 49 135 74 
4 350 351 8 172 
4 194 193 134 195 
4 4 151 5 152 
4 273 94 96 52 
4 293 352 2 161 
4 46 100 86 87 
4 184 162 187 47 
4 5 109 108 7 
4 52 68 49 96 
4 49 74 51 50 
4 158 85 133 83 
4 156 345 353 320 
4 354 355 356 357 
4 358 359 360 361 
4 362 359 360 358 
4 115 60 61 363 
4 73 317 51 161 
4 364 136 193 19 
4 292 57 50 51 
4 253 45 48 254 
4 11 9 365 366 
4 1 165 2 3 
4 1 59 58 2 
4 0 1 58 2 
4 367 368 369 370 
4 371 372 373 374 
4 328 375 376 377 
4 148 194 272 41 
4 23 31 97 61 
4 66 74 51 49 
4 83 205 134 204 
4 199 197 198 137 
4 197 0 137 199 
4 199 0 137 346 
4 197 0 199 346 
4 239 153 125 229 
4 183 4 6 7 
4 30 60 263 61 
4 363 60 61 263 
4 378 379 380 381 
4 311 382 340 383 
4 112 70 148 110 
4 316 48 384 315 
4 137 138 238 139 
4 78 79 209 76 
4 32 115 33 35 
4 33 34 116 124 
4 6 5 108 7 
4 77 78 209 76 
4 385 386 285 284 
4 283 385 285 284 
4 79 77 78 138 
4 77 232 138 149 
4 76 77 138 149 
4 387 388 389 390 
4 66 49 51 52 
4 66 68 49 52 
4 15 13 14 279 
4 69 96 70 72 
4 76 391 149 392 
4 197 58 147 0 
4 137 197 147 0 
4 137 197 198 147 
4 197 222 147 58 
4 253 28 316 45 
4 253 316 48 45 
4 145 223 146 147 
4 393 394 395 396 
4 179 201 241 211 
4 238 138 79 229 
4 20 181 23 125 
4 24 261 25 27 
4 118 149 150 397 
4 7 34 37 36 
4 97 61 30 323 
4 398 399 226 400 
4 71 110 113 72 
4 229 168 125 78 
4 13 401 278 279 
4 402 300 279 401 
4 128 188 164 201 
4 68 303 403 404 
4 98 126 23 61 
4 405 253 316 314 
4 314 316 48 253 
4 17 189 39 40 
4 100 290 291 177 
4 113 193 195 364 
4 80 58 272 81 
4 133 287 204 134 
4 83 134 133 204 
4 229 153 125 238 
4 238 168 125 229 
4 239 153 229 238 
4 406 407 306 359 
4 169 170 408 171 
4 170 350 351 8 
4 408 170 309 171 
4 101 46 86 47 
4 158 288 53 192 
4 41 42 272 43 
4 50 94 81 273 
4 243 178 175 180 
4 118 150 138 139 
4 118 53 119 139 
4 230 397 3 259 
4 397 149 150 409 
4 63 245 410 75 
4 410 245 189 75 
4 63 75 410 26 
4 62 410 64 63 
4 201 128 101 163 
4 94 74 25 135 
4 411 412 413 102 
4 165 1 160 287 
4 95 414 245 72 
4 114 414 17 99 
4 17 414 40 99 
4 245 189 75 414 
4 118 3 0 144 
4 144 3 0 2 
4 147 144 0 2 
4 29 45 180 28 
4 29 30 45 28 
4 29 30 180 45 
4 48 101 184 47 
4 201 188 164 241 
4 75 135 25 26 
4 51 292 255 50 
4 211 176 180 179 
4 87 201 88 241 
4 113 136 193 364 
4 415 173 175 178 
4 118 0 119 53 
4 278 299 279 298 
4 298 299 279 300 
4 402 298 279 300 
4 402 278 279 298 
4 7 108 107 109 
4 201 164 128 163 
4 149 240 138 150 
4 416 417 418 419 
4 142 420 202 203 
4 306 407 421 359 
4 181 242 183 182 
4 242 422 183 182 
4 196 197 223 147 
4 147 222 292 58 
4 147 222 223 292 
4 158 288 192 271 
4 192 288 53 271 
4 336 338 423 339 
4 297 406 359 361 
4 318 319 321 424 
4 50 59 81 94 
4 81 58 272 42 
4 359 358 297 361 
4 80 50 273 52 
4 170 350 8 172 
4 167 166 106 333 
4 100 101 87 201 
4 180 128 101 201 
4 425 426 15 427 
4 12 13 15 426 
4 13 401 15 426 
4 168 312 167 106 
4 94 135 75 49 
4 85 84 44 42 
4 41 84 42 44 
4 194 84 42 41 
4 75 26 27 24 
4 179 176 180 201 
4 211 176 179 201 
4 428 429 430 431 
4 327 91 92 90 
4 238 79 166 168 
4 167 79 166 199 
4 4 109 5 7 
4 83 432 205 204 
4 76 77 79 138 
4 117 168 207 78 
4 206 207 209 78 
4 207 312 167 168 
4 209 207 167 168 
4 116 312 207 168 
4 117 168 116 207 
4 293 57 292 51 
4 317 161 57 51 
4 293 2 292 57 
4 398 399 400 433 
4 434 156 353 320 
4 182 190 183 4 
4 30 61 263 323 
4 318 319 424 435 
4 384 348 436 184 
4 437 348 384 184 
4 437 348 436 384 
4 79 137 166 199 
4 168 106 167 166 
4 166 137 238 139 
4 175 415 210 173 
4 308 66 135 74 
4 438 66 63 135 
4 66 63 135 49 
4 295 307 297 294 
4 295 294 296 307 
4 238 240 139 138 
4 156 154 353 345 
4 379 439 380 381 
4 206 78 209 208 
4 292 2 58 57 
4 50 292 58 57 
4 136 99 246 114 
4 152 349 153 151 
4 4 152 5 153 
4 440 322 20 98 
4 141 68 403 404 
4 68 303 245 403 
4 265 249 248 441 
4 311 130 129 442 
4 311 442 129 340 
4 442 382 129 340 
4 311 382 442 340 
4 356 355 443 357 
4 173 334 174 176 
4 38 175 174 244 
4 25 160 59 287 
4 270 87 224 89 
4 264 100 30 224 
4 106 333 56 332 
4 182 422 183 190 
4 182 405 422 190 
4 242 405 422 182 
4 21 242 181 182 
4 444 445 446 447 
4 181 124 23 125 
4 448 374 449 450 
4 149 76 77 391 
4 88 162 101 86 
4 88 201 101 162 
4 162 201 101 163 
4 162 163 101 184 
4 163 185 184 162 
4 162 185 184 187 
4 88 201 162 163 

CELL_TYPES 505
10
10
10
10
10
10
10
10
10
10
10
10
10
10
10
10
10
10
10
10
10
10
10
10
10
10
10
10
10
10
10
10
10
10
10
10
10
10
10
10
10
10
10
10
10
10
10
10
10
10
10
10
10
10
10
10
10
10
10
10
10
10
10
10
10
10
10
10
10
10
10
10
10
10
10
10
10
10
10
10
10
10
10
10
10
10
10
10
10
10
10
10
10
10
10
10
10
10
10
10
10
10
10
10
10
10
10
10
10
10
10
10
10
10
10
10
10
10
10
10
10
10
10
10
10
10
10
10
10
10
10
10
10
10
10
10
10
10
10
10
10
10
10
10
10
10
10
10
10
10
10
10
10
10
10
10
10
10
10
10
10
10
10
10
10
10
10
10
10
10
10
10
10
10
10
10
10
10
10
10
10
10
10
10
10
10
10
10
10
10
10
10
10
10
10
10
10
10
10
10
10
10
10
10
10
10
10
10
10
10
10
10
10
10
10
10
10
10
10
10
10
10
10
10
10
10
10
10
10
10
10
10
10
10
10
10
10
10
10
10
10
10
10
10
10
10
10
10
10
10
10
10
10
10
10
10
10
10
10
10
10
10
10
10
10
10
10
10
10
10
10
10
10
10
10
10
10
10
10
10
10
10
10
10
10
10
10
10
10
10
10
10
10
10
10
10
10
10
10
10
10
10
10
10
10
10
10
10
10
10
10
10
10
10
10
10
10
10
10
10
10
10
10
10
10
10
10
10
10
10
10
10
10
10
10
10
10
10
10
10
10
10
10
10
10
10
10
10
10
10
10
10
10
10
10
10
10
10
10
10
10
10
10
10
10
10
10
10
10
10
10
10
10
10
10
10
10
10
10
10
10
10
10
10
10
10
10
10
10
10
10
10
10
10
10
10
10
10
10
10
10
10
10
10
10
10
10
10
10
10
10
10
10
10
10
10
10
10
10
10
10
10
10
10
10
10
10
10
10
10
10
10
10
10
10
10
10
10
10
10
10
10
10
10
10
10
10
10
10
10
10
10
10
10
10
10
10
10
10
10
10
10
10
10
10
10
10
10
10
10
10
10
10
10
10
10
10
10
10
10
10
10
10
10
10
10
10
10
10
10
10
10
10
10
10
10
10
10
10
10
10
10
10
10
10

CELL_DATA 505
SCALARS Materials int
LOOKUP_TABLE default
65 65 65 65 65 65 65 65 65 
65 65 65 65 65 65 65 65 65 
65 65 65 65 65 65 65 65 65 
65 65 65 65 65 65 65 65 65 
65 65 65 65 65 65 65 65 65 
65 65 65 65 65 65 65 65 65 
65 65 65 65 65 65 65 65 65 
65 65 65 65 65 65 65 65 65 
65 65 65 65 65 65 65 65 65 
65 65 65 65 65 65 65 65 65 
65 65 65 65 65 65 65 65 65 
65 65 65 65 65 65 65 65 65 
65 65 65 65 65 65 65 65 65 
65 65 65 65 65 65 65 65 65 
65 65 65 65 65 65 65 65 65 
65 65 65 65 65 65 65 65 65 
65 65 65 65 65 65 65 65 65 
65 65 65 65 65 65 65 65 65 
65 65 65 65 65 65 65 65 65 
65 65 65 65 65 65 65 65 65 
65 65 65 65 65 65 65 65 65 
65 65 65 65 65 65 65 65 65 
65 65 65 65 65 65 65 65 65 
65 65 65 65 65 65 65 65 65 
65 65 65 65 65 65 65 65 65 
65 65 65 65 65 65 65 65 65 
65 65 65 65 65 65 65 65 65 
65 65 65 65 65 65 65 65 65 
65 65 65 65 65 65 65 65 65 
65 65 65 65 65 65 65 65 65 
65 65 65 65 65 65 65 65 65 
65 65 65 65 65 65 65 65 65 
65 65 65 65 65 65 65 65 65 
65 65 65 65 65 65 65 65 65 
65 65 65 65 65 65 65 65 65 
65 65 65 65 65 65 65 65 65 
65 65 65 65 65 65 65 65 65 
65 65 65 65 65 65 65 65 65 
65 65 65 65 65 65 65 65 65 
65 65 65 65 65 65 65 65 65 
65 65 65 65 65 65 65 65 65 
65 65 65 65 65 65 65 65 65 
65 65 65 65 65 65 65 65 65 
65 65 65 65 65 65 65 65 65 
65 65 65 65 65 65 65 65 65 
65 65 65 65 65 65 65 65 65 
65 65 65 65 65 65 65 65 65 
65 65 65 65 65 65 65 65 65 
65 65 65 65 65 65 65 65 65 
65 65 65 65 65 65 65 65 65 
65 65 65 65 65 65 65 65 65 
65 65 65 65 65 65 65 65 65 
65 65 65 65 65 65 65 65 65 
65 65 65 65 65 65 65 65 65 
65 65 65 65 65 65 65 65 65 
65 65 65 65 65 65 65 65 65 
65 
