# vtk DataFile Version 3.0
vtk output
ASCII
DATASET UNSTRUCTURED_GRID
POINTS 190 float
185.739 220.218 192.876 188.077 206.947 204.809 180.475 209.188 193.253 
186.656 214.322 181.65 231.763 180.92 184.676 227.81 195.359 176.81 
216.222 190.707 179.658 227.759 194.631 204.772 267.656 176.822 204.867 
272.175 177.026 180.557 273.731 166.959 194.154 250.288 180.497 180.304 
248.098 217.998 185.647 251.458 221.571 197.591 242.591 217.742 204.787 
254.446 212.456 204.875 228.383 123.739 187.998 235.314 130.682 204.776 
238.303 113.283 186.427 248.086 123.857 184.789 180.181 208.953 168.611 
192.703 206.649 160.169 191.219 215.878 169.271 195.87 195.869 173.462 
234.609 207.506 204.78 219.406 212.737 204.722 211.649 201.383 173.318 
259.541 204.692 192.433 260.879 202.678 177.097 266.725 191.329 189.135 
208.511 231.647 177.405 218.799 209.41 165.602 205.257 219.609 161.135 
216.284 230.778 166.886 210.522 228.183 189.886 222.807 229.492 192.464 
208.98 222.55 204.735 222.003 219.581 155.87 212.578 172.286 186.423 
217.041 175.964 204.732 196.724 178.044 204.876 206.177 167.971 204.829 
175.355 199.683 184.321 194.692 191.707 204.833 194.469 179.039 180.025 
195.162 142.757 204.867 203.027 131.923 183.158 191.528 136.323 183.239 
205.621 153.175 187.973 182.374 188.473 204.817 273.746 187.748 199.93 
252.281 150.407 187.974 272.058 152.104 204.843 265.755 139.745 204.775 
273.892 149.71 190.905 176.353 194.842 170.44 223.298 164.015 204.77 
214.434 105.424 204.79 231.47 112.365 204.809 226.408 92.469 204.844 
219.104 104.896 191.461 254.573 159.866 180.446 208.379 151.996 204.759 
194.011 158.273 204.775 182.786 134.41 197.584 183.109 144.142 204.821 
166.69 147.518 198.133 168.144 137.558 204.764 205.803 183.763 171.674 
250.779 176.51 204.84 253.199 97.409 187.521 233.587 102.14 178.441 
245.341 106.333 178.81 237.758 223.766 181.122 233.963 177.979 204.847 
173.637 165.872 172.451 185.403 169.998 176.797 171.794 175.55 184.431 
172.929 162.096 192.026 235.04 80.7897 180.227 232.878 90.5344 169.379 
246.075 90.0896 176.749 214.301 132.755 188.037 213.23 117.48 184.847 
218.146 116.286 196.095 229.775 162.277 187.993 195.611 126.605 204.745 
243.635 168.399 186.68 224.879 76.4622 184.991 232.228 87.6423 191.563 
222.733 91.3395 183.511 220.553 82.676 194.337 267.526 121.748 189.781 
266.304 125.881 204.842 251.614 116.329 204.821 263.624 113.931 204.81 
193.596 149.608 183.133 196.742 163.987 181.735 221.417 127.139 204.899 
230.627 137.29 188.04 244.769 98.3159 204.825 244.44 84.4939 194.66 
236.025 83.3162 204.862 251.885 139.381 204.815 251.534 135.335 186.434 
247.339 127.906 204.805 186.897 187.247 174.448 168.665 188.336 183.191 
249.672 194.993 165.473 268.791 186.463 169.652 275.065 155.622 177.98 
261.128 142.501 184.713 272.692 141.365 175.86 242.196 192.569 204.767 
235.879 222.37 168.665 225.705 227.607 180.326 178.711 155.449 204.77 
214.241 189.158 204.835 199.085 120.828 189.878 238.369 225.967 195.676 
271.67 133.579 191.943 220.421 150.5 188.026 239.018 156.163 204.825 
239.362 143.103 204.769 241.093 155.529 187.932 203.714 209.236 204.794 
225.193 227.737 204.732 234.471 203.504 169.506 183.101 175.759 204.873 
166.559 185.205 197.668 172.772 167.363 204.765 265.359 165.499 170.355 
186.961 222.711 204.784 267.684 207.688 204.76 258.949 192.45 204.823 
241.586 168.251 204.776 258.457 161.478 204.78 250.665 151.769 204.734 
231.824 226.556 157.925 181.448 211.636 156.271 263.498 110.164 193.158 
174.033 142.238 181.602 158.144 136.93 190.53 172.743 125.273 188.017 
194.318 228.834 191.583 199.035 222.591 177.276 241.204 220.181 153.376 
232.463 211.985 159.345 249.293 213.045 168.754 253.118 108.603 169.312 
264.726 115.026 179.351 239.939 191.245 176.869 266.036 196.935 158.53 
258.862 187.131 161.908 259.772 212.984 183.506 222.625 144.439 204.776 
209.42 134.996 204.747 183.909 156.889 177.309 263.567 128.201 172.96 
266.544 176.426 158.992 217.512 94.1392 196.796 209.773 118.766 204.804 
260.253 103.731 179.897 276.754 129.879 176.895 181.904 199.775 160.762 
172.243 156.025 181.287 209.052 142.549 178.392 259.827 177.234 171.979 
269.732 187.83 150.706 255.939 204.342 159.832 261.327 94.5939 171.947 
243.456 205.945 160.179 207.277 202.123 160.851 204.528 236.159 204.809 
242.475 143.001 184.083 174.655 198.602 204.796 185.851 120.947 184.811 
254.687 98.2675 160.822 274.744 150.631 166.034 278.602 167.479 175.262 
209.88 80.7135 204.781 253.043 86.911 167.163 259.008 102.199 204.744 
177.988 180.25 169.205 190.663 236.073 204.811 243.491 90.9729 159.157 
221.609 195.249 165.524 213.645 201.644 204.836 256.373 194.147 151.303 
161.035 152.697 188.833 
CELLS 466 2330
4 0 1 2 3 
4 4 5 6 7 
4 8 9 10 11 
4 12 13 14 15 
4 16 17 18 19 
4 20 21 22 23 
4 5 24 25 7 
4 5 26 6 25 
4 27 28 29 11 
4 30 31 32 33 
4 34 35 36 25 
4 32 37 33 31 
4 38 39 40 41 
4 20 3 42 23 
4 23 43 44 6 
4 45 46 47 48 
4 43 2 42 49 
4 8 50 10 9 
4 51 52 53 54 
4 55 23 20 42 
4 56 38 48 41 
4 57 58 59 60 
4 61 51 54 10 
4 45 62 48 63 
4 64 65 66 67 
4 44 38 68 6 
4 69 8 10 11 
4 18 70 71 72 
4 73 5 12 24 
4 4 7 39 74 
4 75 76 77 78 
4 71 79 80 81 
4 16 82 83 84 
4 4 74 39 85 
4 45 86 47 46 
4 4 11 69 87 
4 88 89 90 91 
4 92 93 94 95 
4 96 63 97 78 
4 17 98 99 16 
4 100 89 101 102 
4 103 104 93 105 
4 77 106 107 49 
4 28 11 108 109 
4 110 54 111 112 
4 4 113 7 74 
4 31 114 33 115 
4 5 115 26 25 
4 96 63 78 116 
4 17 105 18 19 
4 6 43 44 117 
4 82 118 83 84 
4 73 119 25 24 
4 55 106 23 42 
4 111 54 120 112 
4 121 122 123 124 
4 19 99 17 104 
4 104 111 120 92 
4 23 125 43 6 
4 25 119 126 24 
4 39 74 56 85 
4 61 10 54 110 
4 115 127 73 5 
4 6 4 117 38 
4 100 59 89 102 
4 77 128 129 130 
4 69 10 87 11 
4 10 61 131 110 
4 0 125 132 1 
4 15 133 134 27 
4 4 113 74 69 
4 104 53 120 111 
4 107 106 55 42 
4 135 136 137 124 
4 104 120 93 92 
4 136 8 10 69 
4 37 138 33 114 
4 111 53 120 54 
4 69 29 8 11 
4 20 21 139 22 
4 72 18 70 140 
4 141 142 143 67 
4 29 28 109 11 
4 113 134 69 11 
4 48 41 97 63 
4 19 105 94 92 
4 144 125 36 132 
4 145 125 3 26 
4 146 147 148 114 
4 19 72 149 150 
4 151 113 7 4 
4 103 51 53 111 
4 28 108 152 153 
4 121 124 123 99 
4 96 48 97 63 
4 26 145 22 23 
4 22 145 3 23 
4 134 113 27 11 
4 148 28 154 12 
4 4 113 69 11 
4 123 17 155 99 
4 156 118 46 82 
4 157 96 97 78 
4 45 96 47 64 
4 135 122 85 124 
4 92 150 19 158 
4 9 109 159 131 
4 141 96 78 116 
4 34 125 36 144 
4 87 10 61 11 
4 37 147 146 138 
4 86 118 47 46 
4 60 59 57 160 
4 15 134 113 27 
4 87 136 135 124 
4 45 86 46 156 
4 118 86 161 156 
4 19 162 150 140 
4 121 85 56 155 
4 65 63 96 116 
4 120 163 158 112 
4 42 106 43 49 
4 164 21 139 20 
4 98 82 99 16 
4 123 105 17 104 
4 6 117 44 38 
4 165 157 76 78 
4 85 122 56 155 
4 63 45 96 48 
4 46 82 166 48 
4 106 44 43 49 
4 109 167 159 131 
4 134 29 69 11 
4 47 64 118 86 
4 6 7 117 4 
4 73 127 12 5 
4 126 119 14 24 
4 37 147 114 31 
4 138 147 146 114 
4 168 153 159 109 
4 19 16 17 99 
4 108 169 148 28 
4 72 81 170 162 
4 171 147 127 148 
4 172 26 32 22 
4 73 12 119 24 
4 96 45 47 48 
4 34 36 173 144 
4 3 125 1 23 
4 77 128 130 78 
4 103 53 93 104 
4 98 82 84 161 
4 82 118 84 161 
4 47 96 141 64 
4 76 157 97 78 
4 23 44 68 6 
4 38 97 48 41 
4 47 141 143 64 
4 151 113 4 11 
4 34 25 36 125 
4 122 124 137 123 
4 156 161 118 82 
4 90 89 160 91 
4 104 92 93 105 
4 0 1 132 2 
4 29 50 8 9 
4 47 64 86 45 
4 16 82 84 98 
4 72 70 162 140 
4 145 125 34 144 
4 72 71 81 70 
4 164 20 23 21 
4 48 82 166 121 
4 29 9 8 11 
4 44 49 128 40 
4 134 27 29 11 
4 144 125 132 0 
4 106 43 44 23 
4 71 89 79 81 
4 45 156 48 62 
4 123 17 99 104 
4 9 10 131 110 
4 34 25 125 26 
4 145 34 125 26 
4 10 9 61 11 
4 171 148 127 108 
4 26 145 32 22 
4 37 147 138 114 
4 5 115 25 73 
4 149 72 170 162 
4 171 146 147 148 
4 171 169 148 108 
4 144 36 173 132 
4 78 63 97 128 
4 137 52 53 51 
4 63 62 48 41 
4 61 136 51 10 
4 124 123 99 174 
4 96 47 46 48 
4 92 140 19 150 
4 172 22 32 21 
4 26 23 68 6 
4 42 49 175 129 
4 172 22 21 23 
4 85 122 155 121 
4 156 121 62 155 
4 121 56 62 155 
4 38 117 40 39 
4 77 44 49 128 
4 134 29 8 69 
4 64 141 143 67 
4 85 135 56 122 
4 77 49 129 128 
4 77 78 76 128 
4 54 136 51 52 
4 118 176 64 47 
4 176 143 64 47 
4 48 56 41 62 
4 120 163 92 158 
4 149 81 177 170 
4 145 26 3 23 
4 61 54 111 110 
4 103 137 53 51 
4 69 135 74 87 
4 87 135 85 124 
4 87 51 124 61 
4 135 137 122 124 
4 96 46 166 48 
4 30 115 31 33 
4 89 160 59 60 
4 111 51 53 54 
4 61 51 111 54 
4 51 136 54 10 
4 51 136 137 52 
4 78 63 128 116 
4 1 125 43 23 
4 49 2 42 175 
4 9 61 131 10 
4 156 161 82 98 
4 55 20 23 164 
4 108 152 169 28 
4 15 113 24 27 
4 15 27 24 12 
4 178 179 131 110 
4 131 179 9 110 
4 179 10 9 110 
4 35 126 36 25 
4 172 26 22 23 
4 108 148 127 151 
4 148 12 127 151 
4 27 151 24 12 
4 28 12 151 27 
4 28 27 151 11 
4 27 113 151 11 
4 27 113 24 151 
4 108 28 151 11 
4 108 148 151 28 
4 148 12 151 28 
4 91 59 160 180 
4 160 89 59 91 
4 105 94 18 19 
4 136 10 61 87 
4 136 10 87 69 
4 165 157 78 96 
4 141 165 78 96 
4 4 87 74 85 
4 4 69 74 87 
4 151 113 24 7 
4 12 27 13 15 
4 156 82 121 155 
4 121 38 48 56 
4 48 56 62 121 
4 156 121 48 62 
4 156 82 48 121 
4 85 38 121 56 
4 104 53 93 120 
4 5 12 24 151 
4 37 114 33 31 
4 77 44 106 49 
4 121 122 155 123 
4 12 15 14 24 
4 12 14 119 24 
4 5 73 25 24 
4 177 81 181 170 
4 147 127 148 114 
4 147 127 114 31 
4 70 94 182 140 
4 70 94 100 182 
4 71 90 80 79 
4 42 43 106 23 
4 20 22 3 23 
4 44 43 49 40 
4 111 120 158 112 
4 154 28 27 12 
4 19 94 18 140 
4 18 94 70 140 
4 18 94 100 70 
4 58 94 100 18 
4 16 17 58 18 
4 84 58 57 60 
4 107 106 42 49 
4 76 78 97 128 
4 76 75 77 183 
4 49 1 2 175 
4 31 127 114 115 
4 19 104 17 105 
4 104 92 105 19 
4 78 116 128 130 
4 127 12 5 151 
4 7 151 5 24 
4 153 11 167 109 
4 144 173 184 132 
4 58 98 17 16 
4 98 156 155 82 
4 10 136 54 52 
4 105 93 94 92 
4 108 11 153 109 
4 28 108 153 109 
4 28 153 152 109 
4 165 75 77 78 
4 104 51 103 111 
4 103 53 104 111 
4 123 104 99 174 
4 123 103 105 104 
4 123 124 51 174 
4 17 105 58 18 
4 105 94 58 18 
4 72 81 162 70 
4 4 39 117 38 
4 4 7 117 39 
4 3 1 2 23 
4 2 1 43 23 
4 42 2 43 23 
4 3 2 42 23 
4 39 56 41 38 
4 39 56 38 85 
4 4 39 38 85 
4 77 76 44 128 
4 89 90 160 60 
4 97 40 44 128 
4 63 40 97 128 
4 63 41 97 40 
4 38 40 97 41 
4 40 117 44 43 
4 38 117 44 40 
4 38 44 97 40 
4 17 98 155 99 
4 98 82 155 99 
4 121 82 99 155 
4 65 116 141 66 
4 64 66 141 67 
4 19 92 94 140 
4 111 120 92 158 
4 177 81 185 181 
4 87 136 51 61 
4 121 123 155 99 
4 92 163 150 158 
4 164 23 55 106 
4 3 125 0 1 
4 26 125 23 6 
4 26 125 3 23 
4 134 50 8 29 
4 75 165 76 78 
4 85 122 121 124 
4 76 97 44 128 
4 31 26 5 115 
4 4 151 5 7 
4 186 26 5 31 
4 31 5 127 115 
4 141 157 165 96 
4 69 136 135 87 
4 115 25 34 26 
4 115 26 34 31 
4 145 31 34 26 
4 145 26 32 31 
4 26 172 32 31 
4 145 30 34 31 
4 30 115 34 31 
4 145 31 32 30 
4 29 109 167 11 
4 29 167 9 11 
4 9 11 167 61 
4 9 167 131 61 
4 9 167 109 131 
4 29 109 9 167 
4 95 182 94 140 
4 92 95 94 140 
4 71 89 81 70 
4 89 101 81 70 
4 89 100 101 70 
4 89 18 100 70 
4 71 18 89 70 
4 60 18 89 71 
4 71 90 89 60 
4 60 58 59 89 
4 89 58 59 100 
4 18 58 89 100 
4 60 58 89 18 
4 71 90 79 89 
4 162 81 170 70 
4 141 66 142 67 
4 87 135 74 85 
4 85 74 56 135 
4 141 78 66 116 
4 43 1 2 49 
4 107 42 129 49 
4 77 107 129 49 
4 114 73 115 127 
4 148 73 114 127 
4 148 12 73 127 
4 145 125 0 3 
4 145 125 144 0 
4 145 0 144 3 
4 35 119 126 25 
4 35 119 25 73 
4 115 35 25 73 
4 115 119 35 73 
4 115 25 35 34 
4 169 108 153 152 
4 6 187 43 117 
4 6 7 187 117 
4 6 5 187 7 
4 187 5 25 7 
4 6 5 25 187 
4 26 25 187 6 
4 26 187 125 6 
4 6 125 43 187 
4 26 25 125 187 
4 19 18 72 140 
4 60 84 58 18 
4 84 16 58 18 
4 60 16 84 18 
4 98 16 58 84 
4 149 81 170 72 
4 183 106 107 77 
4 106 76 77 183 
4 183 106 55 107 
4 44 76 77 106 
4 46 82 48 156 
4 82 46 83 118 
4 45 46 48 156 
4 188 169 153 152 
4 188 108 153 169 
4 174 51 103 104 
4 123 103 104 174 
4 75 157 76 165 
4 19 72 162 140 
4 86 118 46 156 
4 123 51 103 174 
4 123 137 103 51 
4 123 124 137 51 
4 124 136 137 51 
4 87 136 124 51 
4 19 72 150 162 
4 72 162 149 150 
4 65 96 141 116 
4 45 65 96 64 
4 64 96 141 65 
4 45 63 96 65 
4 111 92 104 158 
4 104 92 19 158 
4 141 165 189 66 
4 66 165 189 78 
4 141 165 66 78 
4 64 65 141 66 
4 12 13 119 14 

CELL_TYPES 466
10
10
10
10
10
10
10
10
10
10
10
10
10
10
10
10
10
10
10
10
10
10
10
10
10
10
10
10
10
10
10
10
10
10
10
10
10
10
10
10
10
10
10
10
10
10
10
10
10
10
10
10
10
10
10
10
10
10
10
10
10
10
10
10
10
10
10
10
10
10
10
10
10
10
10
10
10
10
10
10
10
10
10
10
10
10
10
10
10
10
10
10
10
10
10
10
10
10
10
10
10
10
10
10
10
10
10
10
10
10
10
10
10
10
10
10
10
10
10
10
10
10
10
10
10
10
10
10
10
10
10
10
10
10
10
10
10
10
10
10
10
10
10
10
10
10
10
10
10
10
10
10
10
10
10
10
10
10
10
10
10
10
10
10
10
10
10
10
10
10
10
10
10
10
10
10
10
10
10
10
10
10
10
10
10
10
10
10
10
10
10
10
10
10
10
10
10
10
10
10
10
10
10
10
10
10
10
10
10
10
10
10
10
10
10
10
10
10
10
10
10
10
10
10
10
10
10
10
10
10
10
10
10
10
10
10
10
10
10
10
10
10
10
10
10
10
10
10
10
10
10
10
10
10
10
10
10
10
10
10
10
10
10
10
10
10
10
10
10
10
10
10
10
10
10
10
10
10
10
10
10
10
10
10
10
10
10
10
10
10
10
10
10
10
10
10
10
10
10
10
10
10
10
10
10
10
10
10
10
10
10
10
10
10
10
10
10
10
10
10
10
10
10
10
10
10
10
10
10
10
10
10
10
10
10
10
10
10
10
10
10
10
10
10
10
10
10
10
10
10
10
10
10
10
10
10
10
10
10
10
10
10
10
10
10
10
10
10
10
10
10
10
10
10
10
10
10
10
10
10
10
10
10
10
10
10
10
10
10
10
10
10
10
10
10
10
10
10
10
10
10
10
10
10
10
10
10
10
10
10
10
10
10
10
10
10
10
10
10
10
10
10
10
10
10
10
10
10
10
10
10
10
10
10
10
10
10
10
10
10
10
10
10
10
10
10
10
10
10
10
10
10
10
10
10
10
10
10
10
10
10
10
10
10
10
10

CELL_DATA 466
SCALARS Materials int
LOOKUP_TABLE default
257 257 257 257 257 257 257 257 257 
257 257 257 257 257 257 257 257 257 
257 257 257 257 257 257 257 257 257 
257 257 257 257 257 257 257 257 257 
257 257 257 257 257 257 257 257 257 
257 257 257 257 257 257 257 257 257 
257 257 257 257 257 257 257 257 257 
257 257 257 257 257 257 257 257 257 
257 257 257 257 257 257 257 257 257 
257 257 257 257 257 257 257 257 257 
257 257 257 257 257 257 257 257 257 
257 257 257 257 257 257 257 257 257 
257 257 257 257 257 257 257 257 257 
257 257 257 257 257 257 257 257 257 
257 257 257 257 257 257 257 257 257 
257 257 257 257 257 257 257 257 257 
257 257 257 257 257 257 257 257 257 
257 257 257 257 257 257 257 257 257 
257 257 257 257 257 257 257 257 257 
257 257 257 257 257 257 257 257 257 
257 257 257 257 257 257 257 257 257 
257 257 257 257 257 257 257 257 257 
257 257 257 257 257 257 257 257 257 
257 257 257 257 257 257 257 257 257 
257 257 257 257 257 257 257 257 257 
257 257 257 257 257 257 257 257 257 
257 257 257 257 257 257 257 257 257 
257 257 257 257 257 257 257 257 257 
257 257 257 257 257 257 257 257 257 
257 257 257 257 257 257 257 257 257 
257 257 257 257 257 257 257 257 257 
257 257 257 257 257 257 257 257 257 
257 257 257 257 257 257 257 257 257 
257 257 257 257 257 257 257 257 257 
257 257 257 257 257 257 257 257 257 
257 257 257 257 257 257 257 257 257 
257 257 257 257 257 257 257 257 257 
257 257 257 257 257 257 257 257 257 
257 257 257 257 257 257 257 257 257 
257 257 257 257 257 257 257 257 257 
257 257 257 257 257 257 257 257 257 
257 257 257 257 257 257 257 257 257 
257 257 257 257 257 257 257 257 257 
257 257 257 257 257 257 257 257 257 
257 257 257 257 257 257 257 257 257 
257 257 257 257 257 257 257 257 257 
257 257 257 257 257 257 257 257 257 
257 257 257 257 257 257 257 257 257 
257 257 257 257 257 257 257 257 257 
257 257 257 257 257 257 257 257 257 
257 257 257 257 257 257 257 257 257 
257 257 257 257 257 257 257 
