# vtk DataFile Version 3.0
vtk output
ASCII
DATASET POLYDATA
POINTS 190 float
222.807 229.492 192.464 208.98 222.55 204.735 225.193 227.737 204.732 
238.369 225.967 195.676 225.705 227.607 180.326 203.714 209.236 204.794 
186.961 222.711 204.784 204.528 236.159 204.809 241.204 220.181 153.376 
222.003 219.581 155.87 231.824 226.556 157.925 232.463 211.985 159.345 
194.469 179.039 180.025 205.803 183.763 171.674 212.578 172.286 186.423 
205.621 153.175 187.973 196.742 163.987 181.735 220.421 150.5 188.026 
229.775 162.277 187.993 217.041 175.964 204.732 196.724 178.044 204.876 
206.177 167.971 204.829 223.298 164.015 204.77 233.963 177.979 204.847 
214.241 189.158 204.835 182.374 188.473 204.817 183.101 175.759 204.873 
194.692 191.707 204.833 194.011 158.273 204.775 208.379 151.996 204.759 
176.353 194.842 170.44 168.665 188.336 183.191 175.355 199.683 184.321 
174.655 198.602 204.796 166.559 185.205 197.668 213.645 201.644 204.836 
185.403 169.998 176.797 186.897 187.247 174.448 195.162 142.757 204.867 
195.611 126.605 204.745 209.42 134.996 204.747 182.786 134.41 197.584 
183.109 144.142 204.821 199.085 120.828 189.878 191.528 136.323 183.239 
203.027 131.923 183.158 209.052 142.549 178.392 214.301 132.755 188.037 
193.596 149.608 183.133 213.23 117.48 184.847 174.033 142.238 181.602 
172.743 125.273 188.017 185.851 120.947 184.811 252.281 150.407 187.974 
241.093 155.529 187.932 254.573 159.866 180.446 261.128 142.501 184.713 
251.534 135.335 186.434 242.475 143.001 184.083 272.058 152.104 204.843 
265.755 139.745 204.775 273.892 149.71 190.905 250.665 151.769 204.734 
258.457 161.478 204.78 271.67 133.579 191.943 251.885 139.381 204.815 
266.304 125.881 204.842 275.065 155.622 177.98 272.692 141.365 175.86 
181.904 199.775 160.762 177.988 180.25 169.205 239.018 156.163 204.825 
222.625 144.439 204.776 241.586 168.251 204.776 214.434 105.424 204.79 
226.408 92.469 204.844 231.47 112.365 204.809 217.512 94.1392 196.796 
219.104 104.896 191.461 218.146 116.286 196.095 244.769 98.3159 204.825 
251.614 116.329 204.821 247.339 127.906 204.805 221.417 127.139 204.899 
236.025 83.3162 204.862 232.228 87.6423 191.563 220.553 82.676 194.337 
209.88 80.7135 204.781 222.733 91.3395 183.511 233.587 102.14 178.441 
265.359 165.499 170.355 243.635 168.399 186.68 259.827 177.234 171.979 
178.711 155.449 204.77 168.144 137.558 204.764 166.69 147.518 198.133 
158.144 136.93 190.53 172.929 162.096 192.026 161.035 152.697 188.833 
242.196 192.569 204.767 250.779 176.51 204.84 258.949 192.45 204.823 
253.199 97.409 187.521 260.253 103.731 179.897 263.498 110.164 193.158 
259.008 102.199 204.744 244.44 84.4939 194.66 246.075 90.0896 176.749 
261.327 94.5939 171.947 232.878 90.5344 169.379 245.341 106.333 178.81 
253.118 108.603 169.312 235.879 222.37 168.665 237.758 223.766 181.122 
249.293 213.045 168.754 173.637 165.872 172.451 171.794 175.55 184.431 
172.243 156.025 181.287 183.909 156.889 177.309 172.772 167.363 204.765 
235.04 80.7897 180.227 254.687 98.2675 160.822 253.043 86.911 167.163 
243.491 90.9729 159.157 230.627 137.29 188.04 209.773 118.766 204.804 
224.879 76.4622 184.991 267.526 121.748 189.781 263.624 113.931 204.81 
264.726 115.026 179.351 276.754 129.879 176.895 239.362 143.103 204.769 
263.567 128.201 172.96 234.471 203.504 169.506 243.456 205.945 160.179 
249.672 194.993 165.473 255.939 204.342 159.832 239.939 191.245 176.869 
256.373 194.147 151.303 258.862 187.131 161.908 268.791 186.463 169.652 
266.544 176.426 158.992 269.732 187.83 150.706 266.036 196.935 158.53 
274.744 150.631 166.034 278.602 167.479 175.262 190.663 236.073 204.811 
194.318 228.834 191.583 180.475 209.188 193.253 185.739 220.218 192.876 
186.656 214.322 181.65 188.077 206.947 204.809 180.181 208.953 168.611 
191.219 215.878 169.271 199.035 222.591 177.276 231.763 180.92 184.676 
216.222 190.707 179.658 227.81 195.359 176.81 250.288 180.497 180.304 
211.649 201.383 173.318 221.609 195.249 165.524 218.799 209.41 165.602 
234.609 207.506 204.78 219.406 212.737 204.722 227.759 194.631 204.772 
267.656 176.822 204.867 273.731 166.959 194.154 273.746 187.748 199.93 
272.175 177.026 180.557 266.725 191.329 189.135 259.772 212.984 183.506 
248.098 217.998 185.647 251.458 221.571 197.591 259.541 204.692 192.433 
242.591 217.742 204.787 254.446 212.456 204.875 267.684 207.688 204.76 
238.303 113.283 186.427 228.383 123.739 187.998 248.086 123.857 184.789 
235.314 130.682 204.776 181.448 211.636 156.271 192.703 206.649 160.169 
195.87 195.869 173.462 205.257 219.609 161.135 207.277 202.123 160.851 
260.879 202.678 177.097 208.511 231.647 177.405 216.284 230.778 166.886 
210.522 228.183 189.886 
POLYGONS 378 1512
3 0 1 2 
3 0 2 3 
3 4 0 3 
3 5 1 6 
3 1 7 6 
3 8 9 10 
3 9 8 11 
3 12 13 14 
3 14 15 16 
3 17 15 14 
3 18 17 14 
3 14 16 12 
3 19 20 21 
3 19 22 23 
3 24 20 19 
3 19 21 22 
3 25 26 20 
3 27 25 20 
3 28 20 26 
3 28 21 20 
3 20 24 27 
3 28 29 21 
3 22 21 29 
3 30 31 32 
3 33 32 34 
3 31 34 32 
3 35 27 24 
3 5 27 35 
3 36 12 16 
3 12 36 37 
3 38 29 28 
3 38 39 40 
3 41 39 38 
3 38 40 29 
3 38 42 41 
3 38 28 42 
3 43 44 45 
3 45 46 47 
3 48 45 44 
3 48 46 45 
3 45 49 43 
3 47 49 45 
3 44 50 48 
3 44 51 50 
3 43 52 44 
3 52 51 44 
3 48 16 15 
3 46 15 17 
3 46 48 15 
3 25 33 34 
3 25 34 26 
3 53 54 55 
3 55 56 53 
3 57 53 56 
3 54 53 58 
3 58 53 57 
3 59 60 61 
3 62 60 59 
3 63 62 59 
3 60 64 61 
3 65 66 60 
3 65 60 62 
3 60 66 64 
3 67 61 68 
3 61 64 68 
3 30 69 37 
3 30 70 31 
3 70 30 37 
3 71 22 72 
3 22 29 72 
3 73 22 71 
3 23 22 73 
3 74 75 76 
3 75 74 77 
3 74 78 77 
3 74 79 78 
3 79 74 76 
3 76 80 81 
3 82 76 81 
3 76 75 80 
3 76 83 79 
3 80 75 84 
3 75 85 84 
3 86 75 87 
3 75 77 87 
3 85 75 86 
3 88 77 78 
3 89 88 78 
3 55 90 67 
3 56 55 67 
3 54 91 55 
3 92 90 55 
3 29 40 72 
3 42 28 93 
3 28 26 93 
3 41 42 94 
3 41 43 39 
3 51 41 94 
3 43 41 52 
3 52 41 51 
3 42 95 94 
3 42 93 95 
3 95 96 94 
3 50 96 95 
3 97 95 93 
3 98 50 95 
3 98 95 97 
3 96 51 94 
3 99 23 100 
3 99 100 101 
3 100 23 73 
3 100 73 63 
3 102 103 104 
3 105 102 104 
3 80 102 105 
3 106 107 102 
3 80 106 102 
3 107 108 102 
3 108 103 102 
3 109 89 107 
3 110 107 89 
3 89 109 88 
3 111 107 110 
3 112 4 113 
3 114 112 113 
3 4 3 113 
3 36 115 70 
3 115 116 70 
3 117 116 115 
3 115 118 117 
3 115 36 118 
3 36 16 118 
3 37 36 70 
3 34 116 119 
3 119 116 97 
3 116 117 97 
3 116 34 31 
3 31 70 116 
3 97 93 119 
3 117 98 97 
3 120 109 107 
3 85 120 107 
3 88 109 120 
3 88 120 85 
3 111 121 107 
3 107 122 108 
3 107 123 122 
3 121 123 107 
3 85 107 106 
3 47 46 17 
3 17 124 47 
3 43 49 79 
3 79 83 125 
3 43 79 125 
3 18 91 54 
3 17 18 54 
3 39 125 40 
3 43 125 39 
3 126 85 86 
3 88 126 86 
3 126 88 85 
3 85 106 84 
3 77 88 86 
3 77 86 87 
3 127 66 128 
3 64 66 127 
3 127 104 129 
3 64 127 130 
3 127 129 130 
3 127 128 104 
3 66 81 128 
3 66 65 82 
3 82 81 66 
3 81 80 105 
3 128 81 105 
3 128 105 104 
3 118 16 48 
3 50 118 48 
3 40 125 83 
3 83 72 40 
3 17 54 124 
3 124 54 58 
3 57 124 58 
3 106 80 84 
3 131 82 65 
3 131 65 62 
3 57 56 132 
3 133 134 135 
3 134 136 135 
3 133 135 137 
3 138 135 136 
3 138 139 135 
3 140 141 92 
3 142 139 140 
3 139 141 140 
3 141 142 140 
3 92 139 140 
3 139 143 140 
3 56 67 68 
3 144 145 67 
3 90 144 67 
3 132 56 68 
3 64 130 68 
3 130 132 68 
3 114 8 112 
3 8 10 112 
3 93 26 119 
3 62 71 131 
3 73 71 62 
3 71 72 131 
3 134 133 11 
3 26 34 119 
3 92 141 90 
3 144 90 145 
3 7 146 6 
3 146 147 6 
3 73 62 63 
3 103 129 104 
3 50 51 96 
3 50 117 118 
3 50 98 117 
3 147 146 7 
3 134 8 114 
3 134 11 8 
3 134 114 136 
3 108 111 103 
3 121 111 108 
3 103 111 129 
3 130 129 132 
3 138 136 143 
3 139 138 143 
3 142 141 139 
3 122 121 108 
3 123 121 122 
3 148 149 150 
3 6 149 148 
3 6 147 149 
3 149 147 150 
3 5 6 151 
3 151 6 148 
3 151 27 5 
3 25 151 33 
3 151 148 33 
3 27 151 25 
3 148 32 33 
3 150 32 148 
3 152 32 150 
3 153 150 154 
3 152 150 153 
3 147 154 150 
3 155 156 157 
3 155 158 91 
3 156 155 14 
3 155 137 158 
3 155 91 18 
3 14 155 18 
3 155 157 137 
3 157 156 159 
3 157 133 137 
3 157 160 161 
3 160 157 159 
3 161 133 157 
3 14 13 156 
3 13 159 156 
3 162 163 164 
3 164 19 23 
3 99 164 23 
3 99 162 164 
3 164 24 19 
3 164 35 24 
3 163 35 164 
3 165 166 167 
3 63 165 100 
3 63 166 165 
3 165 101 100 
3 101 165 167 
3 167 166 168 
3 141 168 90 
3 168 141 140 
3 169 167 168 
3 90 168 145 
3 145 168 166 
3 169 168 140 
3 166 61 67 
3 145 166 67 
3 166 63 59 
3 61 166 59 
3 55 91 158 
3 137 135 158 
3 139 92 158 
3 135 139 158 
3 158 92 55 
3 170 114 171 
3 113 3 171 
3 171 172 173 
3 173 170 171 
3 114 113 171 
3 171 3 172 
3 172 174 175 
3 173 172 175 
3 172 3 174 
3 174 2 162 
3 2 174 3 
3 175 174 162 
3 175 176 173 
3 175 101 176 
3 175 99 101 
3 175 162 99 
3 177 178 179 
3 49 178 79 
3 178 49 47 
3 47 124 178 
3 179 178 124 
3 78 178 177 
3 78 79 178 
3 131 72 180 
3 131 180 82 
3 76 180 83 
3 180 76 82 
3 180 72 83 
3 89 177 110 
3 78 177 89 
3 179 110 177 
3 179 124 57 
3 111 179 129 
3 179 111 110 
3 129 179 132 
3 179 57 132 
3 152 30 32 
3 181 152 153 
3 181 69 152 
3 30 152 69 
3 182 181 153 
3 69 181 182 
3 183 69 182 
3 153 184 182 
3 184 185 182 
3 182 185 183 
3 154 184 153 
3 183 13 12 
3 12 37 183 
3 159 13 183 
3 185 159 183 
3 69 183 37 
3 2 163 162 
3 163 1 5 
3 2 1 163 
3 163 5 35 
3 160 159 161 
3 159 185 161 
3 173 169 186 
3 176 101 173 
3 101 169 173 
3 170 173 186 
3 169 140 186 
3 114 170 186 
3 136 114 186 
3 143 136 186 
3 143 186 140 
3 101 167 169 
3 184 187 188 
3 187 4 188 
3 154 189 187 
3 187 189 4 
3 184 154 187 
3 184 9 161 
3 9 11 161 
3 11 133 161 
3 185 184 161 
3 184 188 9 
3 112 188 4 
3 10 188 112 
3 9 188 10 
3 189 1 0 
3 7 189 147 
3 189 7 1 
3 189 154 147 
3 0 4 189 

CELL_DATA 378
SCALARS Materials int
LOOKUP_TABLE default
257 257 257 257 257 257 257 257 257 
257 257 257 257 257 257 257 257 257 
257 257 257 257 257 257 257 257 257 
257 257 257 257 257 257 257 257 257 
257 257 257 257 257 257 257 257 257 
257 257 257 257 257 257 257 257 257 
257 257 257 257 257 257 257 257 257 
257 257 257 257 257 257 257 257 257 
257 257 257 257 257 257 257 257 257 
257 257 257 257 257 257 257 257 257 
257 257 257 257 257 257 257 257 257 
257 257 257 257 257 257 257 257 257 
257 257 257 257 257 257 257 257 257 
257 257 257 257 257 257 257 257 257 
257 257 257 257 257 257 257 257 257 
257 257 257 257 257 257 257 257 257 
257 257 257 257 257 257 257 257 257 
257 257 257 257 257 257 257 257 257 
257 257 257 257 257 257 257 257 257 
257 257 257 257 257 257 257 257 257 
257 257 257 257 257 257 257 257 257 
257 257 257 257 257 257 257 257 257 
257 257 257 257 257 257 257 257 257 
257 257 257 257 257 257 257 257 257 
257 257 257 257 257 257 257 257 257 
257 257 257 257 257 257 257 257 257 
257 257 257 257 257 257 257 257 257 
257 257 257 257 257 257 257 257 257 
257 257 257 257 257 257 257 257 257 
257 257 257 257 257 257 257 257 257 
257 257 257 257 257 257 257 257 257 
257 257 257 257 257 257 257 257 257 
257 257 257 257 257 257 257 257 257 
257 257 257 257 257 257 257 257 257 
257 257 257 257 257 257 257 257 257 
257 257 257 257 257 257 257 257 257 
257 257 257 257 257 257 257 257 257 
257 257 257 257 257 257 257 257 257 
257 257 257 257 257 257 257 257 257 
257 257 257 257 257 257 257 257 257 
257 257 257 257 257 257 257 257 257 
257 257 257 257 257 257 257 257 257 

