# vtk DataFile Version 3.0
vtk output
ASCII
DATASET POLYDATA
POINTS 91 float
172.109 149.644 163.967 170.612 159.229 152.24 173.637 165.872 172.451 
166.168 170.917 161.113 153.114 150.855 146.054 151.253 167.564 153.817 
157.419 162.718 164.743 153.591 152.058 159.389 133.535 129.963 63.1986 
143.207 128.439 54.0733 153.481 124.232 61.5497 156.907 133.599 52.5845 
146.145 124.548 39.089 133.035 127.599 45.4143 146.828 138.172 45.0121 
138.099 139.312 53.2307 163.931 130.483 65.8944 154.341 130.774 100.862 
148.566 141.175 102.675 141.761 133.13 95.276 164.004 136.602 92.6376 
170.02 130.814 101.901 151.063 141.366 87.1691 159.3 151.094 99.1801 
173.753 125.066 81.6483 174.02 123.948 61.1357 164.198 118.425 71.5976 
164.448 120.678 97.2388 172.243 156.025 181.287 164.979 148.478 174.733 
152.822 152.954 175.234 161.035 152.697 188.833 159.713 167.238 176.199 
171.794 175.55 184.431 143.949 137.978 30.5655 157.151 126.096 29.208 
144.446 125.696 25.3497 177.161 125.602 143.098 169.507 142.39 146.351 
159.392 122.292 148.792 154.892 130.757 140.338 148.391 164.271 192.35 
159.608 169.338 204.789 160.489 171.88 191.318 155.376 137.987 24.0496 
104.737 149.986 73.1771 104.206 143.249 60.4623 109.755 139.74 77.566 
111.426 155.647 64.6534 123.015 138.425 61.5609 126.173 144.544 73.5178 
127.354 132.423 82.0901 133.558 144.739 88.9308 119.947 145.677 91.7726 
159.425 114.244 115.324 157.612 114.028 130.492 152.186 103.945 118.044 
171.332 164.068 118.096 183.019 149.808 115.946 176.833 157.754 127.863 
189.168 165.197 117.539 153.631 128.532 127.814 151.524 147.431 128.29 
143.353 138.251 115.767 162.743 162.695 127.246 152.886 161.778 138.3 
167.605 150.842 122.155 152.694 148.206 111.525 164.83 138.78 131.808 
151.672 129.151 113.087 162.777 134.843 111.219 171.355 134.509 121.201 
169.305 123.712 128.794 168.525 155.965 137.521 172.291 151.765 110.153 
172.929 162.096 192.026 172.772 167.363 204.765 166.69 147.518 198.133 
158.414 153.144 204.852 125.515 118.455 133.644 127.751 103.952 132.124 
141.447 109.618 122.333 123.896 106.693 118.15 132.379 115.321 112.427 
160.369 137.019 76.4647 153.621 126.736 86.2168 150.928 125.251 73.9218 
147.088 143.359 65.546 152.116 146.759 76.0676 141.688 132.869 78.0708 
163.691 146.532 155.998 
POLYGONS 166 664
3 0 1 2 
3 1 3 2 
3 1 4 5 
3 3 1 6 
3 1 5 6 
3 5 4 7 
3 8 9 10 
3 11 9 12 
3 12 9 13 
3 9 14 13 
3 9 11 10 
3 15 14 9 
3 11 16 10 
3 17 18 19 
3 20 21 17 
3 19 18 22 
3 18 23 22 
3 23 20 22 
3 16 24 25 
3 26 16 25 
3 16 26 24 
3 24 27 20 
3 27 21 20 
3 21 24 20 
3 28 0 2 
3 29 0 28 
3 29 30 7 
3 30 6 7 
3 6 5 7 
3 29 31 30 
3 28 31 29 
3 32 3 6 
3 3 32 2 
3 2 33 28 
3 32 33 2 
3 30 32 6 
3 14 11 12 
3 14 15 11 
3 14 12 13 
3 12 14 34 
3 14 35 34 
3 35 14 12 
3 36 12 34 
3 35 12 36 
3 37 38 39 
3 38 40 39 
3 41 42 43 
3 30 41 32 
3 32 41 43 
3 32 43 33 
3 41 30 31 
3 35 44 34 
3 44 35 36 
3 44 36 34 
3 45 46 47 
3 46 45 48 
3 46 48 49 
3 47 46 49 
3 48 45 47 
3 49 48 50 
3 48 47 50 
3 47 49 50 
3 24 26 25 
3 24 21 27 
3 51 50 52 
3 53 51 52 
3 51 53 50 
3 50 53 52 
3 54 55 56 
3 57 58 59 
3 60 57 59 
3 57 60 58 
3 58 60 59 
3 61 62 63 
3 64 62 65 
3 66 67 62 
3 62 67 63 
3 66 62 64 
3 61 68 62 
3 62 4 65 
3 4 62 68 
3 69 61 63 
3 70 61 69 
3 69 63 18 
3 69 18 17 
3 70 69 17 
3 68 71 61 
3 71 72 61 
3 61 72 40 
3 68 61 40 
3 68 61 70 
3 63 67 18 
3 68 66 73 
3 68 72 71 
3 72 68 37 
3 70 71 68 
3 71 66 68 
3 38 68 40 
3 68 38 37 
3 38 68 73 
3 38 4 68 
3 66 71 70 
3 73 66 64 
3 66 74 67 
3 66 70 74 
3 73 64 65 
3 73 65 1 
3 38 73 1 
3 1 65 4 
3 72 37 39 
3 40 72 39 
3 75 76 77 
3 28 33 75 
3 31 75 77 
3 43 76 75 
3 33 43 75 
3 28 75 31 
3 77 76 78 
3 31 77 78 
3 76 42 78 
3 76 43 42 
3 78 41 31 
3 41 78 42 
3 74 23 67 
3 23 18 67 
3 74 70 23 
3 23 70 20 
3 21 70 17 
3 20 70 21 
3 79 80 81 
3 79 82 80 
3 82 79 83 
3 79 81 83 
3 80 82 81 
3 81 82 83 
3 54 56 81 
3 56 55 81 
3 55 54 81 
3 84 85 86 
3 84 87 88 
3 16 84 86 
3 84 16 87 
3 20 84 22 
3 84 20 85 
3 84 88 22 
3 86 85 89 
3 89 8 86 
3 89 87 8 
3 87 89 88 
3 22 89 19 
3 89 85 19 
3 88 89 22 
3 87 9 8 
3 16 11 87 
3 15 87 11 
3 87 15 9 
3 16 86 10 
3 86 8 10 
3 85 20 17 
3 85 17 19 
3 90 0 29 
3 7 90 29 
3 1 0 90 
3 38 90 4 
3 38 1 90 
3 4 90 7 

CELL_DATA 166
SCALARS Materials int
LOOKUP_TABLE default
453 453 453 453 453 453 453 453 453 
453 453 453 453 453 453 453 453 453 
453 453 453 453 453 453 453 453 453 
453 453 453 453 453 453 453 453 453 
453 453 453 453 453 453 453 453 453 
453 453 453 453 453 453 453 453 453 
453 453 453 453 453 453 453 453 453 
453 453 453 453 453 453 453 453 453 
453 453 453 453 453 453 453 453 453 
453 453 453 453 453 453 453 453 453 
453 453 453 453 453 453 453 453 453 
453 453 453 453 453 453 453 453 453 
453 453 453 453 453 453 453 453 453 
453 453 453 453 453 453 453 453 453 
453 453 453 453 453 453 453 453 453 
453 453 453 453 453 453 453 453 453 
453 453 453 453 453 453 453 453 453 
453 453 453 453 453 453 453 453 453 
453 453 453 453 
