# vtk DataFile Version 3.0
vtk output
ASCII
DATASET POLYDATA
POINTS 66 float
67.0826 164.475 27.9718 75.9089 172.706 31.177 73.6158 156.494 20.9328 
114.145 122.08 -0.0122985 108.064 116.186 10.4117 101.358 124.186 0.0158307 
112.631 145.167 28.1686 118.295 132.325 36.4216 119.382 132.138 23.8098 
104.741 125.042 51.3639 104.203 134.608 39.2042 111.959 117.159 41.6492 
122.207 119.326 31.9054 107.879 147.399 45.072 94.8677 136.544 50.1881 
105.399 145.616 15.985 102.458 153.055 25.5918 104.023 158.587 36.6923 
117.658 126.014 12.8642 117.634 113.799 19.5281 123.381 138.668 13.7286 
94.0521 118.589 44.1024 81.7218 116.81 57.2747 78.2626 125.901 47.513 
93.3329 128.174 64.7155 74.6459 122.881 34.5628 104.741 112.014 28.5353 
89.042 113.676 27.385 80.605 137.675 58.4262 67.4886 132.794 34.5995 
69.8428 136.697 45.9448 111.804 130.793 62.5729 104.206 143.249 60.4623 
93.941 143.769 71.0302 94.7992 153.319 55.2259 78.6118 122.576 15.383 
94.7766 117.32 8.81677 84.1017 118.335 0.0358143 83.5094 132.182 -0.0146692 
77.4185 142.516 12.013 94.3438 141.073 -0.0233116 67.5115 135.101 22.5924 
104.396 134.52 7.21977 92.2655 149.196 12.0285 77.6783 153.846 60.0103 
83.1086 181.138 46.9916 94.0125 178.681 56.5273 88.6294 172.852 37.102 
80.6578 178.314 62.6408 68.9242 170.456 54.9304 70.4558 177.277 43.0167 
103.708 171.126 64.5755 101.606 167.631 47.7668 89.6131 172.225 74.5403 
93.4706 161.592 27.211 85.7115 157.585 18.3991 77.1834 166.465 63.2166 
68.2189 157.793 51.9788 85.5642 159.973 69.5735 63.1401 160.623 39.1765 
64.3503 145.648 34.0339 60.2125 148.089 48.6191 110.867 158.722 51.6098 
111.426 155.647 64.6534 96.7512 158.172 77.4972 104.737 149.986 73.1771 

POLYGONS 128 512
3 0 1 2 
3 3 4 5 
3 6 7 8 
3 9 7 10 
3 9 11 7 
3 7 11 12 
3 7 12 8 
3 7 13 10 
3 13 7 6 
3 14 9 10 
3 13 14 10 
3 15 16 6 
3 16 17 6 
3 17 13 6 
3 15 6 8 
3 18 8 19 
3 20 8 18 
3 20 15 8 
3 8 12 19 
3 21 22 23 
3 21 24 22 
3 21 23 25 
3 21 9 24 
3 11 21 26 
3 21 25 27 
3 26 21 27 
3 11 9 21 
3 28 23 22 
3 23 29 25 
3 28 30 23 
3 23 30 29 
3 24 28 22 
3 9 31 24 
3 31 32 24 
3 28 24 33 
3 32 33 24 
3 14 13 34 
3 32 9 14 
3 32 14 34 
3 27 35 36 
3 36 26 27 
3 36 37 38 
3 36 35 37 
3 5 4 36 
3 36 38 5 
3 36 4 26 
3 35 39 38 
3 37 35 38 
3 39 40 38 
3 5 38 40 
3 35 41 39 
3 25 41 35 
3 25 35 27 
3 3 5 42 
3 18 3 42 
3 20 18 42 
3 15 20 42 
3 43 15 42 
3 5 40 42 
3 40 43 42 
3 44 28 33 
3 28 44 30 
3 45 46 47 
3 48 45 49 
3 45 50 49 
3 45 1 50 
3 1 45 47 
3 45 48 46 
3 46 51 52 
3 47 46 52 
3 48 53 46 
3 46 53 51 
3 1 47 54 
3 17 54 47 
3 17 47 52 
3 39 55 43 
3 43 40 39 
3 41 2 39 
3 2 55 39 
3 55 16 43 
3 43 16 15 
3 56 48 49 
3 57 56 49 
3 57 44 56 
3 53 48 56 
3 58 53 56 
3 44 58 56 
3 59 57 49 
3 50 59 49 
3 29 41 25 
3 60 41 29 
3 29 30 60 
3 32 31 9 
3 1 0 50 
3 0 59 50 
3 59 61 57 
3 61 59 60 
3 61 30 57 
3 30 61 60 
3 0 60 59 
3 60 0 2 
3 60 2 41 
3 30 44 57 
3 11 26 12 
3 32 34 13 
3 52 51 62 
3 62 17 52 
3 62 51 63 
3 63 51 64 
3 51 53 64 
3 63 32 62 
3 62 32 13 
3 13 17 62 
3 16 54 17 
3 16 55 54 
3 2 1 55 
3 1 54 55 
3 65 64 33 
3 63 64 65 
3 65 32 63 
3 33 32 65 
3 53 58 64 
3 64 58 33 
3 58 44 33 
3 4 19 26 
3 12 26 19 
3 3 18 4 
3 19 4 18 

CELL_DATA 128
SCALARS Materials int
LOOKUP_TABLE default
129 129 129 129 129 129 129 129 129 
129 129 129 129 129 129 129 129 129 
129 129 129 129 129 129 129 129 129 
129 129 129 129 129 129 129 129 129 
129 129 129 129 129 129 129 129 129 
129 129 129 129 129 129 129 129 129 
129 129 129 129 129 129 129 129 129 
129 129 129 129 129 129 129 129 129 
129 129 129 129 129 129 129 129 129 
129 129 129 129 129 129 129 129 129 
129 129 129 129 129 129 129 129 129 
129 129 129 129 129 129 129 129 129 
129 129 129 129 129 129 129 129 129 
129 129 129 129 129 129 129 129 129 
129 129 
