# vtk DataFile Version 3.0
vtk output
ASCII
DATASET POLYDATA
POINTS 13 float
128.433 144.995 130.911 139.83 144.402 135.208 131.089 137.644 142.569 
146.352 139.432 144.235 138.704 132.732 131.851 142.375 147.263 154.176 
136.295 139.02 160.762 115.424 151.976 182.362 104.593 144.322 174.34 
109.505 143.025 191.196 121.105 138.224 178.806 110.536 131.847 181.364 
129.739 157.292 142.043 
POLYGONS 18 72
3 0 1 2 
3 1 3 4 
3 2 1 4 
3 1 2 3 
3 3 2 5 
3 2 6 5 
3 3 6 2 
3 3 2 4 
3 7 8 9 
3 8 7 10 
3 8 11 9 
3 8 10 11 
3 10 7 9 
3 11 10 9 
3 6 3 5 
3 12 0 2 
3 1 12 2 
3 12 1 0 

CELL_DATA 18
SCALARS Materials int
LOOKUP_TABLE default
451 451 451 451 451 451 451 451 451 
451 451 451 451 451 451 451 451 451 

