# vtk DataFile Version 3.0
vtk output
ASCII
DATASET POLYDATA
POINTS 435 float
119.947 145.677 91.7726 111.148 151.974 83.4532 116.91 164.503 96.8871 
122.348 157.054 106.108 124.457 144.745 109.863 33.515 133.325 175.051 
27.0865 147.398 161.808 24.8534 134.227 164.555 141.075 69.2488 169.364 
133.207 66.3583 158.22 145.874 66.4514 155.77 130.76 72.791 178.053 
133.266 62.3523 137.173 143.353 80.7504 151.31 158.636 67.5614 157.307 
150.696 64.9727 143.894 144.587 63.5314 122.131 124.96 113.916 186.131 
130.02 106.691 194.368 109.686 110.083 199.248 137.738 115.969 194.393 
126.246 126.775 204.801 124.734 138.588 120.785 122.963 132.932 106.009 
128.188 127.518 116.009 48.7032 123.18 72.1753 43.6461 136.261 78.1959 
47.6102 134.032 67.0254 125.22 184.119 136 135.375 183.374 143.131 
128.732 170.843 146.396 128.363 170.587 132.135 90.9302 191.794 88.8267 
96.4935 180.599 82.6847 84.8478 185.343 77.6175 128.649 112.772 204.835 
141.147 105.147 204.739 29.6982 158.834 170.411 21.921 147.749 174.964 
114.961 128.964 85.1486 109.755 139.74 77.566 118.382 131.506 73.2936 
103.662 129.15 72.6668 104.737 149.986 73.1771 107.246 119.294 80.47 
96.7512 158.172 77.4972 89.6131 172.225 74.5403 77.1834 166.465 63.2166 
80.6578 178.314 62.6408 170.944 85.7745 184.872 182.801 94.1633 181.905 
164.326 102.233 192.738 93.3329 128.174 64.7155 94.4512 112.086 69.5475 
68.2189 157.793 51.9788 68.9242 170.456 54.9304 69.5217 86.4085 80.0589 
57.9998 97.0153 92.1201 56.9456 102.511 79.5078 119.068 122.829 123.566 
108.973 125.515 116.501 118.557 179.999 120.345 164.575 64.0949 119.266 
171.496 65.8724 100.372 181.042 73.5712 110.91 181.386 63.4671 120.708 
195.042 65.9341 113.579 192.607 65.2164 129.028 179.619 87.3569 119.239 
194.992 80.5231 122.609 71.4516 127.912 204.744 61.3149 129.822 194.577 
67.7966 118.007 194.436 116.554 192.578 128.171 153.591 152.058 159.389 
155.009 136.522 157.09 142.375 147.263 154.176 146.352 139.432 144.235 
154.892 130.757 140.338 138.51 150.734 166.381 152.822 152.954 175.234 
76.5956 65.9171 134.066 75.1333 85.3973 124.077 78.5559 73.9748 118.985 
69.3359 78.9996 108.997 63.0222 86.5926 119.603 64.7885 72.659 124.139 
54.5983 84.2703 108.329 32.5444 178.231 134.634 28.1455 164.859 132.782 
27.2322 169.187 144.918 26.4698 154.668 142.525 29.8489 154.303 123.442 
28.2516 165.827 116.57 32.8648 178.463 117.85 29.3755 180.714 150.338 
36.4624 191.173 149.878 39.9643 189.937 132.168 24.1323 167.03 157.271 
152.503 122.188 193.795 151.03 107.772 194.451 165.596 115.129 191.854 
159.461 90.3324 189.609 145.757 93.7966 192.785 158.144 136.93 190.53 
137.139 130.987 191.254 172.743 125.273 188.017 177.401 110.024 187.987 
79.5301 104.269 61.5481 84.8653 96.5797 71.1779 75.9797 90.0275 63.7288 
92.9467 96.341 80.688 86.0813 109.16 86.0046 72.5252 101.804 82.344 
86.8311 85.9716 83.9871 58.9534 111.118 88.7982 69.6119 113.029 95.6666 
69.5123 97.9619 55.2087 81.7218 116.81 57.2747 71.5767 110.695 49.934 
65.2747 95.6939 69.2667 56.5826 110.135 63.9762 51.7305 126.616 57.0775 
58.8544 115.986 47.8487 51.3629 113.391 79.0204 78.2626 125.901 47.513 
80.605 137.675 58.4262 68.777 107.156 112.64 76.8887 114.334 105.999 
55.8381 112.415 101.169 70.1678 95.6756 116.109 81.9696 108.523 117.476 
54.8831 98.249 105.505 51.7319 96.3556 133.935 43.8558 95.1172 146.384 
37.9553 105.439 132.052 54.0914 101.133 120.062 44.4993 112.255 122.329 
54.4617 84.8848 148.349 61.1995 86.801 132.964 42.3004 108.618 106.353 
25.9203 140.873 150.192 24.7596 140.271 136.883 24.3909 128.094 146.558 
33.9979 123.422 160.527 38.8882 111.359 144.214 34.9687 107.55 163.788 
39.6096 123.091 172.704 171.636 120.217 154.503 159.392 122.292 148.792 
164.513 126.314 164.448 172.291 109.1 135.684 181.031 110.364 153.287 
180.66 122.981 168.405 157.612 114.028 130.492 154.709 135.432 174.852 
165.663 128.549 177.389 107.137 64.6322 152.431 119.588 65.8779 161.414 
110.971 70.4731 171.441 121.968 63.5639 147.816 91.1177 67.6916 155.659 
90.6321 68.6308 141.394 98.2159 73.2087 168.201 114.71 62.3969 133.78 
101.47 64.6817 134.469 112.086 80.4801 179.995 99.6455 83.816 175.17 
25.0701 179.292 163.229 35.0347 188.709 163.256 31.847 172.939 173.251 
44.7623 183.499 181.706 43.7403 165.004 188.137 33.44 163.574 181.296 
43.4098 192.947 172.562 37.2459 201.753 166.622 43.1883 199.933 156.029 
127.751 103.952 132.124 141.447 109.618 122.333 123.896 106.693 118.15 
125.515 118.455 133.644 137.114 99.3954 108.596 141.848 124.476 120.266 
152.186 103.945 118.044 132.379 115.321 112.427 117.747 118.205 111.15 
120.632 98.0158 102.397 108.843 115.246 124.012 84.2043 203.745 166.99 
98.6789 190.79 173.494 95.1652 205.703 160.974 84.6064 195.635 176.698 
71.8964 206.63 166.383 78.715 211.729 148.597 91.5163 208.771 149.67 
55.4932 198.065 174.145 58.866 207.007 165.202 65.8094 218.729 152.003 
69.522 195.368 180.031 146.135 142.669 184.326 132.961 145.535 194.792 
132.091 144.216 180.325 128.697 127.424 174.87 89.3291 93.8572 185.797 
82.6975 84.9506 176.782 100.831 103.008 192.528 88.3276 103.928 193.23 
110.936 91.9781 186.399 98.271 85.1799 191.957 74.978 94.3071 183.905 
67.9237 87.515 173.689 71.1861 80.2595 163.781 86.1079 76.4726 165.779 
131.089 137.644 142.569 129.739 157.292 142.043 128.739 145.629 153.869 
128.574 163.331 160.024 126.118 140.004 167.378 125.468 155.063 171.918 
136.295 139.02 160.762 116.747 168.266 173.699 122.689 178.685 159.702 
124.347 114.251 163.434 111.97 115.949 175.153 110.536 131.847 181.364 
112.721 121.903 195.28 116.748 126.838 172.002 140.268 91.4635 176.756 
143.224 73.4716 181.382 150.962 80.1974 189.243 123.32 83.1094 186.431 
137.076 82.5883 189.44 130.801 94.7504 192.797 161.851 76.0435 182.304 
109.61 180.839 173.663 112.005 193.185 166.534 98.1288 178.208 182.046 
106.012 166.682 182.501 122.522 190.745 148.52 108.752 201.588 150.505 
81.4616 186.176 185.543 98.5584 113.359 204.735 119.181 101.872 191.152 
109.505 143.025 191.196 103.879 137.658 204.699 104.549 124.78 204.833 
116.71 135.604 204.829 121.762 136.57 192.34 89.0444 128.164 197.538 
79.608 117.087 199.196 95.7133 142.366 192.792 84.8218 139.372 204.836 
74.2547 124.441 186.383 71.552 136.912 196.018 51.9077 179.255 91.5168 
44.7203 163.273 89.9025 39.1057 168.761 105.652 28.6117 155.536 107.821 
38.9777 157.826 99.5847 45.8627 181.655 107.166 34.6595 141.794 112.809 
32.8509 131.25 126.16 128.433 144.995 130.911 138.704 132.732 131.851 
46.0653 151.289 77.0862 54.3654 169.859 72.0359 49.2421 152.1 65.5102 
42.308 144.87 86.9202 58.9405 180.557 79.6148 64.626 175.952 66.2227 
56.0804 158.941 58.3559 40.1491 135.343 98.8792 40.1637 124.803 106.095 
34.5839 146.565 96.3802 34.7991 129.688 88.7526 100.027 106.535 82.0136 
110.474 101.929 93.5605 96.2586 109.717 95.6696 108.819 114.269 100.008 
123.25 126.648 95.1905 102.218 113.146 111.797 108.598 101.574 114.832 
89.3484 112.428 107.594 121.105 138.224 178.806 92.601 199.056 123.956 
92.6724 188.152 116.344 99.9648 198.919 110.19 93.2233 189.053 130.692 
102.214 177.503 117.939 111.125 188.443 110.498 57.0935 197.525 119.995 
74.0607 205.078 118.868 64.6699 199.843 109.046 71.3351 221.252 133.568 
61.2931 210.304 121.308 85.1665 210.71 125.288 80.3771 204.029 106.406 
90.1854 206.069 114.427 104.593 144.322 174.34 115.424 151.976 182.362 
45.5644 112.635 174.312 56.6992 98.6971 182.163 56.9832 117.211 188.922 
43.8241 125.506 184.675 45.4235 102.754 158.946 44.3555 97.4634 173.287 
72.3456 106.08 191.139 58.5262 89.1166 165.288 167.991 69.2048 167.781 
154.656 70.2775 172.356 162.07 83.3882 150.564 151.391 90.31 146.943 
153.013 77.7335 143.165 164.531 65.7879 146.566 32.2284 119.042 118.081 
46.4432 115.343 90.0546 116.828 175.191 105.369 104.772 181.205 93.4042 
101.529 191.483 100.057 108.251 164.992 86.3531 199.895 99.0514 175.658 
208.885 107.255 172.761 201.52 115.356 178.866 213.389 108.181 154.45 
208.25 91.8014 167.229 196.9 100.212 159.031 213.23 117.48 184.847 
209.52 126.779 173.17 194.999 114.592 167.217 195.836 125.904 175.18 
191.487 106.172 181.585 193.959 88.1307 174.232 185.851 120.947 184.811 
199.085 120.828 189.878 203.027 131.923 183.158 67.3062 194.489 93.6689 
50.6268 194.586 102.237 99.0929 156.818 189.575 79.1454 146.746 194.343 
85.2616 159.807 192.773 46.4634 189.182 119.703 48.1867 197.796 128.134 
105.088 194.768 136.804 100.741 207.859 141.633 116.809 196.908 139.618 
105.388 183.207 129.787 102.474 205.254 127.108 83.4498 104.113 204.799 
44.7722 125.343 83.4264 31.0137 118.372 133.58 47.3391 90.0786 157.593 
174.135 67.1415 154.261 177.98 63.5801 134.368 192.763 68.6645 144.3 
186.959 70.4238 160.203 205.318 79.6737 136.286 186.499 91.8592 140.521 
196.776 90.5259 149.41 186.778 99.0521 151.18 180.722 102.464 141.276 
177.871 97.1211 130.608 186.487 86.3128 129.469 200.086 76.5474 159.376 
180.364 74.0518 172.608 196.6 68.5771 174.354 77.6783 153.846 60.0103 
93.941 143.769 71.0302 69.8428 136.697 45.9448 58.4741 129.344 45.6549 
50.5149 142.262 58.7019 74.6459 122.881 34.5628 167.276 99.7416 121.593 
162.691 64.0527 134.446 139.729 158.217 129.539 122.24 160.68 118.635 
83.8624 174.083 190.604 94.5014 168.221 188.35 90.8469 198.276 100.481 
56.8136 206.64 152.28 45.0595 211.216 150.383 37.8257 200.397 141.342 
57.5908 188.077 183.308 191.528 136.323 183.239 52.9611 205.972 135.617 
64.0794 212.062 140.354 153.631 128.532 127.814 204.908 79.2254 148.482 
210.301 89.8525 151.142 65.789 154.86 194.365 65.9807 144.055 204.83 
50.4192 138.724 191.142 48.7124 152.528 191.822 59.8232 168.577 192.768 
72.2487 170.085 193.025 39.3407 139.378 184.73 60.2125 148.089 48.6191 
85.5642 159.973 69.5735 34.0653 150.633 181.604 80.1139 203.928 90.1038 
87.3735 85.7161 135.245 90.9712 96.618 129.66 102.506 91.9825 126.754 
88.9563 68.0931 127.193 101.564 75.9866 127.176 79.0406 97.7606 124.027 
98.6153 63.3557 117.758 115.962 77.8778 120.39 79.2932 72.5881 144.039 
85.8588 214.083 137.902 167.363 82.3649 106.786 154.012 94.3581 109.64 
123.923 86.5566 98.3827 140.79 88.105 101.128 93.2049 107.759 123.841 
116.137 89.8292 112.94 93.8172 124.887 124.508 112.236 60.0496 115.767 
118.262 76.8542 107.675 126.057 61.2693 118.577 71.0285 184.54 74.0618 
77.1512 192.145 85.5472 69.003 182.295 188.251 50.1063 175.53 189.528 
159.369 69.8429 90.7116 153.373 82.5667 98.3453 152.908 64.1439 104.199 
143.013 72.7585 90.3771 137.398 65.2456 107.947 69.2486 78.798 140.246 
65.7904 80.7451 152.303 130.831 79.7468 106.393 131.304 70.1109 96.7911 
119.937 69.3633 91.1564 115.827 65.0111 103.005 74.2769 68.2782 154.406 

POLYGONS 880 3520
3 0 1 2 
3 2 3 0 
3 4 0 3 
3 5 6 7 
3 8 9 10 
3 11 9 8 
3 10 9 12 
3 10 13 14 
3 15 10 12 
3 16 15 12 
3 17 18 19 
3 20 17 21 
3 4 22 23 
3 22 24 23 
3 25 26 27 
3 28 29 30 
3 30 31 28 
3 32 33 34 
3 35 18 20 
3 18 35 19 
3 35 20 21 
3 20 18 36 
3 37 6 38 
3 6 5 38 
3 39 40 0 
3 39 41 40 
3 41 42 40 
3 40 43 1 
3 0 40 1 
3 39 42 41 
3 39 44 42 
3 4 23 0 
3 43 45 1 
3 33 46 34 
3 46 47 48 
3 34 46 48 
3 49 50 51 
3 52 42 53 
3 42 44 53 
3 47 54 55 
3 56 57 58 
3 24 59 60 
3 24 60 23 
3 31 61 28 
3 62 63 64 
3 62 64 65 
3 65 66 67 
3 64 66 65 
3 64 68 69 
3 70 71 72 
3 61 73 28 
3 74 75 76 
3 75 77 76 
3 78 77 75 
3 74 76 79 
3 74 79 80 
3 81 82 83 
3 84 85 82 
3 85 86 82 
3 84 82 83 
3 82 86 83 
3 86 84 83 
3 84 86 85 
3 87 84 85 
3 66 64 69 
3 66 69 67 
3 88 89 90 
3 89 91 90 
3 89 92 91 
3 92 89 93 
3 89 94 93 
3 94 89 88 
3 88 90 95 
3 88 95 96 
3 88 97 94 
3 88 96 97 
3 90 91 98 
3 95 90 98 
3 99 100 101 
3 100 99 20 
3 102 100 103 
3 51 100 102 
3 101 100 51 
3 103 100 36 
3 100 20 36 
3 99 104 105 
3 99 105 20 
3 99 106 104 
3 106 99 101 
3 107 106 101 
3 107 101 51 
3 108 109 110 
3 109 111 112 
3 53 111 109 
3 56 110 109 
3 108 53 109 
3 112 113 109 
3 114 109 113 
3 109 114 56 
3 113 115 57 
3 56 113 57 
3 112 116 113 
3 56 114 113 
3 116 115 113 
3 108 110 117 
3 118 108 119 
3 108 117 119 
3 118 53 108 
3 110 120 117 
3 120 121 117 
3 110 56 120 
3 58 121 120 
3 56 58 120 
3 121 122 123 
3 117 121 123 
3 25 122 121 
3 121 124 25 
3 121 58 124 
3 125 126 118 
3 125 118 119 
3 52 53 118 
3 126 52 118 
3 127 116 128 
3 116 127 129 
3 130 127 131 
3 127 132 129 
3 128 131 127 
3 132 127 130 
3 133 134 135 
3 136 133 137 
3 134 133 138 
3 137 133 135 
3 133 136 139 
3 133 139 138 
3 136 137 140 
3 132 136 140 
3 139 136 85 
3 136 132 85 
3 141 142 143 
3 141 143 7 
3 141 91 142 
3 6 141 7 
3 91 141 6 
3 144 145 146 
3 144 146 147 
3 143 144 7 
3 144 5 7 
3 145 144 143 
3 144 147 5 
3 148 149 150 
3 148 151 149 
3 152 151 148 
3 148 150 153 
3 152 148 153 
3 149 75 150 
3 149 151 154 
3 149 78 75 
3 154 78 149 
3 75 155 150 
3 153 150 156 
3 150 155 156 
3 157 158 159 
3 157 160 158 
3 159 158 11 
3 158 160 9 
3 158 9 11 
3 157 161 162 
3 159 163 157 
3 163 161 157 
3 157 164 160 
3 157 162 165 
3 157 165 164 
3 166 167 159 
3 166 159 11 
3 159 167 163 
3 95 98 168 
3 95 168 169 
3 95 169 96 
3 170 171 169 
3 170 172 171 
3 37 170 98 
3 98 170 168 
3 168 170 169 
3 173 172 170 
3 37 173 170 
3 174 175 169 
3 175 176 169 
3 169 171 174 
3 96 169 176 
3 177 178 179 
3 180 177 179 
3 178 177 180 
3 178 181 179 
3 178 182 154 
3 178 154 183 
3 178 180 184 
3 182 178 184 
3 178 183 181 
3 185 179 186 
3 179 185 187 
3 180 179 187 
3 179 181 186 
3 188 189 190 
3 191 188 192 
3 192 188 193 
3 191 189 188 
3 188 194 193 
3 188 190 194 
3 195 192 196 
3 192 197 196 
3 195 198 192 
3 198 191 192 
3 192 193 197 
3 104 199 105 
3 155 80 199 
3 80 79 199 
3 104 155 199 
3 200 199 201 
3 199 200 105 
3 199 79 201 
3 156 155 104 
3 106 156 104 
3 17 105 202 
3 20 105 17 
3 202 105 201 
3 105 200 201 
3 203 204 167 
3 203 205 206 
3 205 203 207 
3 208 203 167 
3 207 203 208 
3 204 203 209 
3 203 206 209 
3 210 211 204 
3 211 212 204 
3 204 212 167 
3 209 210 204 
3 207 208 167 
3 207 167 166 
3 167 212 163 
3 213 214 215 
3 214 216 215 
3 217 215 218 
3 217 219 215 
3 219 213 215 
3 218 215 216 
3 220 216 221 
3 218 216 220 
3 30 216 214 
3 221 216 30 
3 17 222 223 
3 223 224 225 
3 222 226 223 
3 223 226 224 
3 17 223 225 
3 227 102 103 
3 227 228 229 
3 227 230 231 
3 232 227 103 
3 227 232 230 
3 227 231 228 
3 102 227 229 
3 233 102 229 
3 102 233 49 
3 102 49 51 
3 18 232 103 
3 18 103 36 
3 234 235 189 
3 234 220 221 
3 234 221 235 
3 234 189 236 
3 220 234 237 
3 237 234 236 
3 189 235 190 
3 221 238 235 
3 190 235 239 
3 238 239 235 
3 236 189 240 
3 240 189 191 
3 205 241 206 
3 207 242 205 
3 205 19 241 
3 205 242 19 
3 225 243 244 
3 35 21 225 
3 21 17 225 
3 225 245 19 
3 245 225 244 
3 225 224 243 
3 19 35 225 
3 246 225 247 
3 225 243 247 
3 243 225 246 
3 241 248 249 
3 250 248 244 
3 248 245 244 
3 248 241 245 
3 251 248 250 
3 252 249 248 
3 253 252 248 
3 253 248 251 
3 206 241 249 
3 19 245 241 
3 254 255 256 
3 93 256 257 
3 94 256 93 
3 255 258 256 
3 256 259 254 
3 259 256 94 
3 258 257 256 
3 92 93 257 
3 92 260 261 
3 92 261 142 
3 92 142 91 
3 257 260 92 
3 221 30 238 
3 180 182 184 
3 59 180 187 
3 182 180 24 
3 180 59 24 
3 222 202 226 
3 202 222 17 
3 214 213 262 
3 263 213 77 
3 213 263 262 
3 219 77 213 
3 264 255 265 
3 27 264 266 
3 26 264 27 
3 265 266 264 
3 264 267 255 
3 26 267 264 
3 255 254 265 
3 255 267 258 
3 265 268 269 
3 254 268 265 
3 269 270 265 
3 265 270 266 
3 271 272 260 
3 273 271 260 
3 273 267 271 
3 271 274 272 
3 271 267 274 
3 260 272 261 
3 273 260 257 
3 275 276 277 
3 111 275 112 
3 53 275 111 
3 44 276 275 
3 275 277 112 
3 44 275 53 
3 276 278 277 
3 276 44 278 
3 185 278 279 
3 278 185 280 
3 278 280 277 
3 278 186 281 
3 185 278 281 
3 278 185 186 
3 278 39 279 
3 278 44 39 
3 280 282 277 
3 112 277 282 
3 283 226 202 
3 201 283 202 
3 74 155 75 
3 74 80 155 
3 77 219 76 
3 79 219 201 
3 201 219 217 
3 219 79 76 
3 284 285 286 
3 284 287 285 
3 285 287 288 
3 289 286 285 
3 288 289 285 
3 290 291 292 
3 293 291 294 
3 291 290 294 
3 291 293 295 
3 291 296 292 
3 291 295 297 
3 291 297 296 
3 298 243 224 
3 299 243 298 
3 224 283 298 
3 283 299 298 
3 72 249 252 
3 253 70 252 
3 70 72 252 
3 300 301 302 
3 146 300 147 
3 300 302 303 
3 304 300 146 
3 300 305 301 
3 300 304 305 
3 147 300 303 
3 301 306 302 
3 307 210 301 
3 305 307 301 
3 210 209 301 
3 306 301 209 
3 303 302 71 
3 72 302 306 
3 71 302 72 
3 14 308 309 
3 309 233 228 
3 228 8 309 
3 309 308 233 
3 309 10 14 
3 309 8 10 
3 310 311 312 
3 312 313 310 
3 313 14 310 
3 13 310 14 
3 311 310 13 
3 137 314 272 
3 314 261 272 
3 140 137 272 
3 140 272 315 
3 272 274 315 
3 289 316 317 
3 318 289 317 
3 317 2 319 
3 318 317 32 
3 316 2 317 
3 32 317 33 
3 319 33 317 
3 46 319 45 
3 46 33 319 
3 1 45 319 
3 2 1 319 
3 320 321 322 
3 323 321 324 
3 325 321 323 
3 321 326 322 
3 326 321 327 
3 321 328 327 
3 325 328 321 
3 324 321 320 
3 153 329 328 
3 328 325 152 
3 328 152 153 
3 327 328 329 
3 330 320 322 
3 324 320 331 
3 320 50 331 
3 320 330 50 
3 330 322 332 
3 326 327 322 
3 333 322 329 
3 322 333 332 
3 322 327 334 
3 329 322 334 
3 268 254 335 
3 259 336 254 
3 336 335 254 
3 116 129 115 
3 112 128 116 
3 115 129 315 
3 129 132 140 
3 129 140 315 
3 128 282 131 
3 112 282 128 
3 283 224 226 
3 243 250 244 
3 299 337 243 
3 243 337 250 
3 243 246 247 
3 338 250 339 
3 339 250 337 
3 338 251 250 
3 340 259 94 
3 336 259 340 
3 340 97 341 
3 340 341 290 
3 97 340 94 
3 336 340 290 
3 342 343 344 
3 345 287 342 
3 73 342 344 
3 345 342 73 
3 342 284 346 
3 343 342 346 
3 342 287 284 
3 345 61 288 
3 287 345 288 
3 61 345 73 
3 306 206 347 
3 206 249 347 
3 206 306 209 
3 249 72 306 
3 249 306 347 
3 9 160 12 
3 164 12 160 
3 274 348 315 
3 124 348 25 
3 348 26 25 
3 315 348 124 
3 348 274 26 
3 274 267 26 
3 115 315 124 
3 135 134 145 
3 349 135 145 
3 137 135 349 
3 304 134 350 
3 134 138 350 
3 145 134 304 
3 145 304 146 
3 349 145 143 
3 351 352 353 
3 308 351 354 
3 313 351 14 
3 352 351 313 
3 351 353 354 
3 351 308 14 
3 355 356 357 
3 357 356 358 
3 359 356 360 
3 356 359 358 
3 355 361 356 
3 360 356 361 
3 354 353 362 
3 363 308 354 
3 364 363 354 
3 362 364 354 
3 365 366 126 
3 367 365 126 
3 367 126 125 
3 126 366 52 
3 122 25 27 
3 122 368 123 
3 122 369 368 
3 369 122 27 
3 368 125 370 
3 125 119 370 
3 368 367 125 
3 299 218 220 
3 299 220 237 
3 312 311 13 
3 312 10 15 
3 10 312 13 
3 15 313 312 
3 68 360 361 
3 151 359 360 
3 371 360 68 
3 151 360 371 
3 352 313 372 
3 352 372 62 
3 16 372 15 
3 62 372 16 
3 15 372 313 
3 242 207 230 
3 207 166 230 
3 363 50 49 
3 363 331 50 
3 363 233 308 
3 49 233 363 
3 364 331 363 
3 362 324 331 
3 362 331 364 
3 152 325 358 
3 325 357 358 
3 152 358 359 
3 373 214 262 
3 31 214 373 
3 31 30 214 
3 374 373 262 
3 22 374 262 
3 316 374 3 
3 374 31 373 
3 374 4 3 
3 4 374 22 
3 61 374 316 
3 31 374 61 
3 263 22 262 
3 185 60 280 
3 185 23 60 
3 185 280 187 
3 280 185 281 
3 23 185 279 
3 279 39 0 
3 23 279 0 
3 137 349 314 
3 375 236 240 
3 376 237 236 
3 375 376 236 
3 376 339 337 
3 375 339 376 
3 376 337 237 
3 349 261 314 
3 261 349 143 
3 142 261 143 
3 297 284 286 
3 295 284 297 
3 346 284 295 
3 297 286 377 
3 296 297 377 
3 286 289 318 
3 286 318 377 
3 176 174 195 
3 176 175 174 
3 195 196 176 
3 196 378 176 
3 378 379 176 
3 379 380 176 
3 380 96 176 
3 381 195 174 
3 381 174 171 
3 151 371 154 
3 151 152 359 
3 50 330 107 
3 107 330 332 
3 332 329 153 
3 153 106 332 
3 153 156 106 
3 332 382 329 
3 333 382 332 
3 106 107 332 
3 198 240 191 
3 290 383 294 
3 290 341 383 
3 336 290 292 
3 383 384 294 
3 341 380 383 
3 378 384 383 
3 383 380 379 
3 378 383 379 
3 384 293 294 
3 193 293 384 
3 378 197 384 
3 197 193 384 
3 385 182 263 
3 182 385 154 
3 263 182 24 
3 154 371 183 
3 154 385 78 
3 78 385 263 
3 263 77 78 
3 22 263 24 
3 292 296 335 
3 335 336 292 
3 67 355 353 
3 67 353 352 
3 353 386 362 
3 353 355 386 
3 67 69 355 
3 355 69 361 
3 355 387 386 
3 357 387 355 
3 325 387 357 
3 253 338 388 
3 71 70 253 
3 389 253 388 
3 389 390 253 
3 71 253 390 
3 338 253 251 
3 390 388 391 
3 388 392 391 
3 339 388 338 
3 390 389 388 
3 393 392 388 
3 393 388 339 
3 303 71 390 
3 394 390 391 
3 303 390 394 
3 123 368 370 
3 119 117 123 
3 119 123 370 
3 367 368 395 
3 368 369 395 
3 396 366 365 
3 365 367 54 
3 47 396 365 
3 365 54 47 
3 45 43 366 
3 45 366 396 
3 43 40 366 
3 366 42 52 
3 40 42 366 
3 258 267 273 
3 273 257 258 
3 397 394 391 
3 397 391 172 
3 391 392 172 
3 335 296 398 
3 296 377 398 
3 399 400 401 
3 402 399 403 
3 82 399 83 
3 399 401 403 
3 399 402 83 
3 404 399 82 
3 399 404 400 
3 405 403 165 
3 402 403 405 
3 406 164 403 
3 406 403 401 
3 165 403 164 
3 161 407 162 
3 162 402 165 
3 162 81 402 
3 81 162 407 
3 5 397 38 
3 397 37 38 
3 5 394 397 
3 37 397 173 
3 397 172 173 
3 303 394 5 
3 402 405 165 
3 402 81 83 
3 293 193 408 
3 293 408 295 
3 409 410 371 
3 371 410 183 
3 409 371 68 
3 270 369 266 
3 395 270 54 
3 369 270 395 
3 54 270 55 
3 55 270 269 
3 27 266 369 
3 411 181 412 
3 183 410 181 
3 181 410 412 
3 186 181 411 
3 281 401 413 
3 400 413 401 
3 414 406 401 
3 414 401 281 
3 283 217 218 
3 201 283 218 
3 201 299 283 
3 283 201 217 
3 299 201 218 
3 195 381 198 
3 197 378 196 
3 186 414 281 
3 281 413 280 
3 413 282 280 
3 415 413 280 
3 280 413 187 
3 413 415 187 
3 131 413 404 
3 404 413 400 
3 131 282 413 
3 187 60 59 
3 415 60 187 
3 362 387 324 
3 386 387 362 
3 387 323 324 
3 325 323 387 
3 238 344 239 
3 30 29 238 
3 29 28 238 
3 28 344 238 
3 307 304 350 
3 304 307 305 
3 316 3 2 
3 289 61 316 
3 61 289 288 
3 46 45 396 
3 46 396 47 
3 11 230 166 
3 147 303 5 
3 406 416 164 
3 417 406 414 
3 406 417 416 
3 12 164 418 
3 416 418 164 
3 419 268 335 
3 420 419 335 
3 420 335 398 
3 377 318 32 
3 377 32 398 
3 392 393 421 
3 392 421 422 
3 422 172 392 
3 172 422 171 
3 341 97 380 
3 380 97 96 
3 404 130 131 
3 130 404 82 
3 343 239 344 
3 73 344 28 
3 382 333 329 
3 327 329 334 
3 193 194 408 
3 194 343 408 
3 408 346 295 
3 408 343 346 
3 409 423 424 
3 423 425 426 
3 424 423 426 
3 63 425 423 
3 409 63 423 
3 62 16 425 
3 63 62 425 
3 16 427 425 
3 425 427 426 
3 64 409 68 
3 63 409 64 
3 410 409 424 
3 412 410 424 
3 412 424 426 
3 82 428 139 
3 138 139 428 
3 139 85 82 
3 81 428 82 
3 138 428 429 
3 407 428 81 
3 428 407 429 
3 60 415 280 
3 430 411 412 
3 412 426 431 
3 430 412 431 
3 430 431 411 
3 171 422 381 
3 421 381 422 
3 431 432 411 
3 432 417 411 
3 414 186 411 
3 414 411 417 
3 190 239 194 
3 233 229 228 
3 228 11 8 
3 231 11 228 
3 57 115 58 
3 124 58 115 
3 269 268 419 
3 232 242 230 
3 17 242 18 
3 242 232 18 
3 242 17 19 
3 230 11 231 
3 427 418 433 
3 427 16 418 
3 416 433 418 
3 16 12 418 
3 433 417 432 
3 417 433 416 
3 431 427 433 
3 426 427 431 
3 431 433 432 
3 69 68 361 
3 62 65 352 
3 65 67 352 
3 429 407 434 
3 434 407 161 
3 163 212 161 
3 212 434 161 
3 48 269 419 
3 47 269 48 
3 47 55 269 
3 367 395 54 
3 194 239 343 
3 393 339 375 
3 421 375 240 
3 393 375 421 
3 198 421 240 
3 34 419 420 
3 419 34 48 
3 32 34 420 
3 32 420 398 
3 6 37 98 
3 91 6 98 
3 381 421 198 
3 84 130 85 
3 130 84 87 
3 85 130 82 
3 130 87 132 
3 138 307 350 
3 138 429 307 
3 132 87 85 
3 50 107 51 
3 337 299 237 
3 211 429 434 
3 212 211 434 
3 429 211 307 
3 307 211 210 

CELL_DATA 880
SCALARS Materials int
LOOKUP_TABLE default
385 385 385 385 385 385 385 385 385 
385 385 385 385 385 385 385 385 385 
385 385 385 385 385 385 385 385 385 
385 385 385 385 385 385 385 385 385 
385 385 385 385 385 385 385 385 385 
385 385 385 385 385 385 385 385 385 
385 385 385 385 385 385 385 385 385 
385 385 385 385 385 385 385 385 385 
385 385 385 385 385 385 385 385 385 
385 385 385 385 385 385 385 385 385 
385 385 385 385 385 385 385 385 385 
385 385 385 385 385 385 385 385 385 
385 385 385 385 385 385 385 385 385 
385 385 385 385 385 385 385 385 385 
385 385 385 385 385 385 385 385 385 
385 385 385 385 385 385 385 385 385 
385 385 385 385 385 385 385 385 385 
385 385 385 385 385 385 385 385 385 
385 385 385 385 385 385 385 385 385 
385 385 385 385 385 385 385 385 385 
385 385 385 385 385 385 385 385 385 
385 385 385 385 385 385 385 385 385 
385 385 385 385 385 385 385 385 385 
385 385 385 385 385 385 385 385 385 
385 385 385 385 385 385 385 385 385 
385 385 385 385 385 385 385 385 385 
385 385 385 385 385 385 385 385 385 
385 385 385 385 385 385 385 385 385 
385 385 385 385 385 385 385 385 385 
385 385 385 385 385 385 385 385 385 
385 385 385 385 385 385 385 385 385 
385 385 385 385 385 385 385 385 385 
385 385 385 385 385 385 385 385 385 
385 385 385 385 385 385 385 385 385 
385 385 385 385 385 385 385 385 385 
385 385 385 385 385 385 385 385 385 
385 385 385 385 385 385 385 385 385 
385 385 385 385 385 385 385 385 385 
385 385 385 385 385 385 385 385 385 
385 385 385 385 385 385 385 385 385 
385 385 385 385 385 385 385 385 385 
385 385 385 385 385 385 385 385 385 
385 385 385 385 385 385 385 385 385 
385 385 385 385 385 385 385 385 385 
385 385 385 385 385 385 385 385 385 
385 385 385 385 385 385 385 385 385 
385 385 385 385 385 385 385 385 385 
385 385 385 385 385 385 385 385 385 
385 385 385 385 385 385 385 385 385 
385 385 385 385 385 385 385 385 385 
385 385 385 385 385 385 385 385 385 
385 385 385 385 385 385 385 385 385 
385 385 385 385 385 385 385 385 385 
385 385 385 385 385 385 385 385 385 
385 385 385 385 385 385 385 385 385 
385 385 385 385 385 385 385 385 385 
385 385 385 385 385 385 385 385 385 
385 385 385 385 385 385 385 385 385 
385 385 385 385 385 385 385 385 385 
385 385 385 385 385 385 385 385 385 
385 385 385 385 385 385 385 385 385 
385 385 385 385 385 385 385 385 385 
385 385 385 385 385 385 385 385 385 
385 385 385 385 385 385 385 385 385 
385 385 385 385 385 385 385 385 385 
385 385 385 385 385 385 385 385 385 
385 385 385 385 385 385 385 385 385 
385 385 385 385 385 385 385 385 385 
385 385 385 385 385 385 385 385 385 
385 385 385 385 385 385 385 385 385 
385 385 385 385 385 385 385 385 385 
385 385 385 385 385 385 385 385 385 
385 385 385 385 385 385 385 385 385 
385 385 385 385 385 385 385 385 385 
385 385 385 385 385 385 385 385 385 
385 385 385 385 385 385 385 385 385 
385 385 385 385 385 385 385 385 385 
385 385 385 385 385 385 385 385 385 
385 385 385 385 385 385 385 385 385 
385 385 385 385 385 385 385 385 385 
385 385 385 385 385 385 385 385 385 
385 385 385 385 385 385 385 385 385 
385 385 385 385 385 385 385 385 385 
385 385 385 385 385 385 385 385 385 
385 385 385 385 385 385 385 385 385 
385 385 385 385 385 385 385 385 385 
385 385 385 385 385 385 385 385 385 
385 385 385 385 385 385 385 385 385 
385 385 385 385 385 385 385 385 385 
385 385 385 385 385 385 385 385 385 
385 385 385 385 385 385 385 385 385 
385 385 385 385 385 385 385 385 385 
385 385 385 385 385 385 385 385 385 
385 385 385 385 385 385 385 385 385 
385 385 385 385 385 385 385 385 385 
385 385 385 385 385 385 385 385 385 
385 385 385 385 385 385 385 385 385 
385 385 385 385 385 385 385 
