# vtk DataFile Version 3.0
vtk output
ASCII
DATASET UNSTRUCTURED_GRID
POINTS 13 float
129.739 157.292 142.043 128.433 144.995 130.911 139.83 144.402 135.208 
131.089 137.644 142.569 104.593 144.322 174.34 121.105 138.224 178.806 
115.424 151.976 182.362 109.505 143.025 191.196 146.352 139.432 144.235 
136.295 139.02 160.762 142.375 147.263 154.176 138.704 132.732 131.851 
110.536 131.847 181.364 
CELLS 5 25
4 0 1 2 3 
4 4 5 6 7 
4 8 3 9 10 
4 2 8 3 11 
4 4 12 5 7 

CELL_TYPES 5
10
10
10
10
10

CELL_DATA 5
SCALARS Materials int
LOOKUP_TABLE default
451 451 451 451 451 
