# vtk DataFile Version 3.0
vtk output
ASCII
DATASET UNSTRUCTURED_GRID
POINTS 106 float
118.382 131.506 73.2936 111.804 130.793 62.5729 109.755 139.74 77.566 
123.015 138.425 61.5609 126.173 144.544 73.5178 141.761 133.13 95.276 
154.341 130.774 100.862 148.566 141.175 102.675 135.286 128.008 105.386 
119.947 145.677 91.7726 127.354 132.423 82.0901 133.558 144.739 88.9308 
123.25 126.648 95.1905 167.605 150.842 122.155 183.019 149.808 115.946 
176.833 157.754 127.863 183.748 146.178 132.686 136.104 140.76 104.966 
133.035 127.599 45.4143 132.067 129.602 28.1741 118.295 132.325 36.4216 
124.894 142.885 46.9117 131.733 146.526 26.3167 119.382 132.138 23.8098 
138.099 139.312 53.2307 132.575 147.9 59.6153 133.535 129.963 63.1986 
141.688 132.869 78.0708 143.207 128.439 54.0733 146.828 138.172 45.0121 
137.291 145.329 13.8031 143.949 137.978 30.5655 148.275 148.644 21.3702 
132.091 144.216 180.325 126.118 140.004 167.378 121.105 138.224 178.806 
125.468 155.063 171.918 104.206 143.249 60.4623 94.8677 136.544 50.1881 
94.7992 153.319 55.2259 107.879 147.399 45.072 151.672 129.151 113.087 
143.353 138.251 115.767 128.188 127.518 116.009 141.848 124.476 120.266 
138.704 132.732 131.851 195.245 152.141 124.698 146.145 124.548 39.089 
171.355 134.509 121.201 183.966 133.271 117.633 176.574 140.531 107.337 
121.762 136.57 192.34 122.396 147.289 204.73 133.921 137.286 204.813 
132.961 145.535 194.792 126.246 126.775 204.801 137.139 130.987 191.254 
123.381 138.668 13.7286 124.502 150.709 8.57972 147.175 137.738 0.0263707 
133.736 147.036 -0.0215438 142.717 156.935 8.8273 122.963 132.932 106.009 
142.258 128.45 12.5399 133.546 135.475 7.57403 127.808 151.422 37.9354 
114.961 128.964 85.1486 142.342 152.057 80.9614 147.088 143.359 65.546 
189.407 181.943 119.245 203.529 179.994 128.773 187.382 170.585 131.817 
189.168 165.197 117.539 115.424 151.976 182.362 142.229 150.402 98.2566 
205.48 162.304 129.546 143.368 147.034 204.852 145.445 131.236 204.85 
124.254 133.005 -0.008204 194.273 161.791 106.455 202.771 163.973 116.195 
124.457 144.745 109.863 137.829 149.826 45.6158 139.83 144.402 135.208 
128.433 144.995 130.911 163.553 139.601 -0.0219681 158.351 142.89 12.2905 
156.858 150.901 0.0161685 151.063 141.366 87.1691 131.089 137.644 142.569 
114.856 148.522 -0.0753024 205.709 181.521 115.966 219.347 167.027 119.141 
216.855 178.356 126.331 109.505 143.025 191.196 116.71 135.604 204.829 
136.295 139.02 160.762 138.51 150.734 166.381 124.734 138.588 120.785 
128.739 145.629 153.869 142.375 147.263 154.176 172.291 151.765 110.153 
183.875 149.619 99.2255 171.332 164.068 118.096 146.352 139.432 144.235 
151.524 147.431 128.29 
CELLS 123 615
4 0 1 2 3 
4 0 3 2 4 
4 5 6 7 8 
4 9 10 11 12 
4 13 14 15 16 
4 5 8 7 17 
4 18 19 20 21 
4 19 22 23 20 
4 24 3 25 21 
4 4 26 27 10 
4 28 24 29 18 
4 30 31 32 22 
4 33 34 35 36 
4 37 38 39 40 
4 17 5 8 12 
4 7 41 42 8 
4 10 0 2 4 
4 42 43 44 45 
4 46 16 15 14 
4 47 19 18 31 
4 18 21 31 19 
4 48 14 49 50 
4 51 52 53 54 
4 51 53 55 56 
4 19 22 57 23 
4 57 22 30 58 
4 26 24 28 18 
4 59 60 30 61 
4 26 3 25 24 
4 62 17 43 8 
4 63 64 30 59 
4 20 22 65 21 
4 19 31 22 21 
4 12 10 66 9 
4 66 10 2 9 
4 54 33 56 51 
4 26 3 4 25 
4 64 19 30 57 
4 31 65 22 21 
4 11 5 17 12 
4 27 4 11 67 
4 30 19 22 57 
4 13 48 14 16 
4 27 26 4 68 
4 17 8 42 43 
4 69 70 71 72 
4 42 8 44 43 
4 19 22 20 21 
4 7 8 42 17 
4 26 4 68 25 
4 35 73 51 33 
4 74 5 17 11 
4 71 46 72 75 
4 76 77 53 56 
4 26 3 0 4 
4 60 78 64 58 
4 10 0 66 2 
4 46 79 72 80 
4 48 49 14 16 
4 81 17 43 62 
4 18 82 29 31 
4 47 31 18 29 
4 11 10 5 12 
4 83 42 45 84 
4 24 26 68 25 
4 18 21 82 31 
4 26 24 18 3 
4 85 59 86 87 
4 18 24 29 82 
4 42 41 44 8 
4 51 54 53 56 
4 72 70 80 69 
4 7 6 41 8 
4 24 21 18 3 
4 88 27 5 11 
4 5 27 10 11 
4 27 4 10 11 
4 76 53 54 56 
4 30 19 31 22 
4 63 19 31 30 
4 86 63 30 59 
4 75 46 72 80 
4 1 37 2 3 
4 63 19 30 64 
4 84 83 89 45 
4 26 0 10 4 
4 60 78 58 90 
4 91 80 92 93 
4 92 80 75 93 
4 93 80 75 70 
4 91 80 93 70 
4 35 73 94 51 
4 64 60 30 59 
4 51 52 95 53 
4 51 95 55 53 
4 46 15 72 14 
4 31 82 22 65 
4 31 82 65 21 
4 96 34 33 97 
4 64 78 57 58 
4 64 30 60 58 
4 57 30 64 58 
4 42 98 45 84 
4 42 43 45 98 
4 17 43 98 81 
4 17 43 42 98 
4 81 43 98 62 
4 62 17 8 12 
4 62 11 17 12 
4 9 11 62 12 
4 96 34 97 99 
4 100 96 97 99 
4 89 96 100 99 
4 101 14 48 50 
4 14 101 102 50 
4 101 14 103 15 
4 13 101 103 15 
4 13 14 101 15 
4 13 14 48 101 
4 83 89 104 100 
4 105 42 45 83 
4 28 26 68 24 
4 18 21 24 82 

CELL_TYPES 123
10
10
10
10
10
10
10
10
10
10
10
10
10
10
10
10
10
10
10
10
10
10
10
10
10
10
10
10
10
10
10
10
10
10
10
10
10
10
10
10
10
10
10
10
10
10
10
10
10
10
10
10
10
10
10
10
10
10
10
10
10
10
10
10
10
10
10
10
10
10
10
10
10
10
10
10
10
10
10
10
10
10
10
10
10
10
10
10
10
10
10
10
10
10
10
10
10
10
10
10
10
10
10
10
10
10
10
10
10
10
10
10
10
10
10
10
10
10
10
10
10
10
10

CELL_DATA 123
SCALARS Materials int
LOOKUP_TABLE default
33 33 33 33 33 33 33 33 33 
33 33 33 33 33 33 33 33 33 
33 33 33 33 33 33 33 33 33 
33 33 33 33 33 33 33 33 33 
33 33 33 33 33 33 33 33 33 
33 33 33 33 33 33 33 33 33 
33 33 33 33 33 33 33 33 33 
33 33 33 33 33 33 33 33 33 
33 33 33 33 33 33 33 33 33 
33 33 33 33 33 33 33 33 33 
33 33 33 33 33 33 33 33 33 
33 33 33 33 33 33 33 33 33 
33 33 33 33 33 33 33 33 33 
33 33 33 33 33 33 
