# vtk DataFile Version 3.0
vtk output
ASCII
DATASET UNSTRUCTURED_GRID
POINTS 88 float
236.352 193.759 149.627 231.15 176.721 144.82 239.962 191.802 136.054 
244.629 174.299 138.338 216.537 158.386 169.078 209.052 142.549 178.392 
223.598 140.975 176.829 220.421 150.5 188.026 276.093 177.406 147.769 
266.544 176.426 158.992 268.754 166.415 137.536 271 159.102 156.98 
258.862 187.131 161.908 244.75 165.082 148.383 259.827 177.234 171.979 
256.779 150.475 133.326 267.479 160.231 126 269.679 153.192 136.889 
202.998 161.278 152.542 216.608 161.084 155.713 205.423 179.972 157.321 
197.602 162.758 163.734 265.359 165.499 170.355 252.728 154.632 151.991 
262.511 146.406 166.509 230.627 137.29 188.04 228.161 152.392 171.672 
256.373 194.147 151.303 249.672 194.993 165.473 223.11 187.458 151.868 
233.393 165.628 155.905 231.763 180.92 184.676 221.609 195.249 165.524 
243.635 168.399 186.68 240.351 150.905 166.477 244.209 159.426 158.956 
254.573 159.866 180.446 205.803 183.763 171.674 257.917 161.199 117.023 
263.014 148.61 120.816 275.285 145.994 127.252 265.196 139.221 134.393 
260.828 187.496 141.854 269.732 187.83 150.706 250.288 180.497 180.304 
251.538 164.009 130.143 253.387 160.392 141.459 216.222 190.707 179.658 
227.81 195.359 176.81 235.113 136.553 176.57 242.475 143.001 184.083 
230.582 154.08 159.758 198.235 175.074 166.487 269.567 144.341 146.776 
265.313 177.929 135.901 239.939 191.245 176.869 241.093 155.529 187.932 
261.775 178.67 124.325 244.088 182.386 128.44 247.528 202.449 148.812 
255.939 204.342 159.832 243.456 205.945 160.179 229.775 162.277 187.993 
256.305 189.661 129.507 216.911 172.881 148.296 234.471 203.504 169.506 
245.945 175.073 118.109 247.596 190.878 119.494 212.346 190.986 157.551 
254.412 203.053 131.647 212.578 172.286 186.423 249.578 136.771 170.436 
205.049 156.155 175.145 196.742 163.987 181.735 274.744 150.631 166.034 
273.779 137.74 160.209 191.682 175.737 155.219 193.596 149.608 183.133 
205.621 153.175 187.973 208.466 165.757 141.62 209.52 126.779 173.17 
214.301 132.755 188.037 194.469 179.039 180.025 232.463 211.985 159.345 
226.813 204.245 149.228 252.281 150.407 187.974 203.027 131.923 183.158 
261.128 142.501 184.713 
CELLS 199 995
4 0 1 2 3 
4 4 5 6 7 
4 8 9 10 11 
4 12 13 9 14 
4 10 15 16 17 
4 18 19 20 21 
4 11 22 23 24 
4 6 25 26 7 
4 27 28 0 12 
4 0 29 1 30 
4 31 32 30 4 
4 33 34 35 36 
4 0 12 3 27 
4 32 37 30 4 
4 16 15 38 39 
4 9 22 23 11 
4 40 39 41 17 
4 12 9 42 43 
4 12 30 14 44 
4 45 46 16 10 
4 47 48 31 32 
4 31 30 26 4 
4 25 49 6 50 
4 51 26 30 4 
4 20 19 52 21 
4 11 24 23 53 
4 9 8 54 43 
4 12 43 42 27 
4 55 0 28 30 
4 37 32 31 4 
4 56 25 7 50 
4 57 58 45 3 
4 22 36 35 24 
4 4 7 6 26 
4 59 60 61 28 
4 26 25 50 7 
4 62 26 56 7 
4 63 3 54 42 
4 29 64 1 30 
4 0 1 13 30 
4 35 30 51 34 
4 65 61 28 0 
4 27 3 2 42 
4 31 55 44 30 
4 57 66 38 45 
4 67 58 57 63 
4 55 28 44 30 
4 33 62 26 56 
4 68 37 29 32 
4 56 26 50 7 
4 33 56 26 34 
4 31 26 62 4 
4 37 20 64 4 
4 59 2 69 42 
4 31 70 4 62 
4 12 13 3 42 
4 37 29 30 4 
4 12 0 13 30 
4 13 9 54 42 
4 59 69 27 42 
4 12 0 3 13 
4 28 30 12 44 
4 29 37 64 4 
4 4 7 26 62 
4 50 36 71 34 
4 10 46 15 17 
4 54 9 10 8 
4 17 15 16 39 
4 46 15 16 10 
4 22 35 23 24 
4 33 26 35 34 
4 55 29 0 30 
4 54 3 45 46 
4 64 19 30 4 
4 70 52 72 73 
4 31 32 55 30 
4 32 29 55 30 
4 37 70 4 31 
4 47 70 37 31 
4 24 74 75 53 
4 34 35 24 23 
4 4 72 5 7 
4 7 70 4 72 
4 31 30 62 26 
4 71 36 24 34 
4 29 64 30 4 
4 9 54 42 43 
4 76 21 18 20 
4 57 54 45 10 
4 17 23 15 53 
4 72 77 5 78 
4 46 23 15 17 
4 51 34 30 26 
4 35 26 30 34 
4 79 64 18 19 
4 18 64 20 19 
4 5 80 6 81 
4 5 81 6 7 
4 33 62 30 26 
4 11 23 46 17 
4 69 2 63 42 
4 31 33 62 30 
4 31 44 33 30 
4 27 12 3 42 
4 36 14 22 35 
4 62 70 4 7 
4 32 29 30 37 
4 29 20 64 37 
4 47 32 31 37 
4 82 52 70 73 
4 65 83 0 84 
4 9 46 10 11 
4 46 9 10 54 
4 55 65 28 0 
4 34 49 71 50 
4 52 19 4 21 
4 52 21 72 73 
4 20 64 4 19 
4 52 21 4 72 
4 76 52 21 20 
4 84 0 32 29 
4 32 29 0 55 
4 55 65 0 32 
4 84 65 32 0 
4 34 36 24 35 
4 50 56 85 36 
4 17 41 53 15 
4 17 39 41 15 
4 11 23 17 53 
4 59 27 2 42 
4 12 9 13 42 
4 28 0 12 30 
4 48 65 55 32 
4 6 81 25 7 
4 72 78 5 7 
4 48 55 31 32 
4 0 1 3 13 
4 20 37 29 68 
4 19 51 30 4 
4 6 25 50 26 
4 36 56 34 50 
4 56 26 34 50 
4 2 58 63 42 
4 58 3 63 42 
4 2 3 58 42 
4 73 77 72 78 
4 70 73 72 78 
4 7 70 72 78 
4 36 33 34 56 
4 57 45 16 10 
4 45 15 38 16 
4 57 45 38 16 
4 54 46 45 10 
4 61 59 28 0 
4 11 46 10 17 
4 45 15 16 46 
4 24 11 74 53 
4 11 22 24 74 
4 67 66 57 58 
4 57 66 45 58 
4 9 23 46 11 
4 26 49 34 50 
4 26 6 49 50 
4 70 52 4 72 
4 70 37 4 52 
4 37 4 52 20 
4 20 19 4 52 
4 82 37 70 52 
4 3 13 54 42 
4 9 13 23 35 
4 9 35 23 22 
4 65 61 0 83 
4 9 35 22 14 
4 86 81 80 5 
4 59 28 27 60 
4 59 28 0 27 
4 59 0 2 27 
4 0 3 2 27 
4 50 85 87 71 
4 71 85 87 24 
4 85 36 87 24 
4 71 36 85 24 
4 50 36 85 71 
4 57 3 45 54 
4 54 58 57 3 
4 63 58 54 3 
4 63 58 57 54 
4 13 23 46 9 
4 13 9 46 54 
4 3 13 46 54 
4 44 33 35 36 
4 14 35 36 44 
4 14 30 35 44 
4 44 33 30 35 
4 33 26 30 35 
4 12 30 35 14 
4 12 35 13 14 
4 9 13 35 14 
4 12 30 13 35 

CELL_TYPES 199
10
10
10
10
10
10
10
10
10
10
10
10
10
10
10
10
10
10
10
10
10
10
10
10
10
10
10
10
10
10
10
10
10
10
10
10
10
10
10
10
10
10
10
10
10
10
10
10
10
10
10
10
10
10
10
10
10
10
10
10
10
10
10
10
10
10
10
10
10
10
10
10
10
10
10
10
10
10
10
10
10
10
10
10
10
10
10
10
10
10
10
10
10
10
10
10
10
10
10
10
10
10
10
10
10
10
10
10
10
10
10
10
10
10
10
10
10
10
10
10
10
10
10
10
10
10
10
10
10
10
10
10
10
10
10
10
10
10
10
10
10
10
10
10
10
10
10
10
10
10
10
10
10
10
10
10
10
10
10
10
10
10
10
10
10
10
10
10
10
10
10
10
10
10
10
10
10
10
10
10
10
10
10
10
10
10
10
10
10
10
10
10
10
10
10
10
10
10
10

CELL_DATA 199
SCALARS Materials int
LOOKUP_TABLE default
321 321 321 321 321 321 321 321 321 
321 321 321 321 321 321 321 321 321 
321 321 321 321 321 321 321 321 321 
321 321 321 321 321 321 321 321 321 
321 321 321 321 321 321 321 321 321 
321 321 321 321 321 321 321 321 321 
321 321 321 321 321 321 321 321 321 
321 321 321 321 321 321 321 321 321 
321 321 321 321 321 321 321 321 321 
321 321 321 321 321 321 321 321 321 
321 321 321 321 321 321 321 321 321 
321 321 321 321 321 321 321 321 321 
321 321 321 321 321 321 321 321 321 
321 321 321 321 321 321 321 321 321 
321 321 321 321 321 321 321 321 321 
321 321 321 321 321 321 321 321 321 
321 321 321 321 321 321 321 321 321 
321 321 321 321 321 321 321 321 321 
321 321 321 321 321 321 321 321 321 
321 321 321 321 321 321 321 321 321 
321 321 321 321 321 321 321 321 321 
321 321 321 321 321 321 321 321 321 
321 
