# vtk DataFile Version 3.0
vtk output
ASCII
DATASET UNSTRUCTURED_GRID
POINTS 86 float
198.72 206.383 134.097 221.155 213.342 140.687 223.553 192.627 128.78 
209.664 215.427 127.019 227.196 157.957 84.7017 235.599 174.123 84.6411 
219.737 171.797 104.522 235.26 164.32 99.6715 245.36 180.575 103.148 
240.258 196.727 105.364 229.269 199.326 98.1683 218.416 183.879 113.95 
219.347 167.027 119.141 225.884 155.314 117 240.849 167.052 110.29 
236.9 162.235 120.905 226.813 204.245 149.228 208.312 212.488 145.383 
203.13 199.183 114.313 203.529 179.994 128.773 216.586 156.51 126.73 
202.771 163.973 116.195 210.906 151.793 116.226 205.48 162.304 129.546 
208.792 175.981 72.4071 219.755 187.115 79.3233 200.797 151.547 102.847 
204.943 167.793 103.194 212.284 149.577 90.7873 192.379 163.681 89.206 
205.338 191.112 97.0164 209.907 179.546 101.567 216.016 197.911 96.8875 
198.025 172.345 80.2212 199.447 151.722 82.5416 198.902 162.101 71.1676 
202.449 182.74 87.9695 188.462 195.114 129.685 182.712 183.993 129.624 
189.407 181.943 119.245 223.564 151.961 104.044 205.709 181.521 115.966 
198.606 184.376 105.359 182.072 181.019 141.768 190.139 200.675 146.158 
205.423 179.972 157.321 192.703 206.649 160.169 207.277 202.123 160.851 
212.346 190.986 157.551 223.11 187.458 151.868 224.644 169.731 71.1198 
216.397 206.926 116.007 231.262 208.322 132.917 191.682 175.737 155.219 
187.837 189.34 158.591 230.136 209.696 109.495 239.185 203.769 120.49 
193.871 193.135 119.1 196.341 174.244 95.783 216.911 172.881 148.296 
208.466 165.757 141.62 216.855 178.356 126.331 231.15 176.721 144.82 
218.799 209.41 165.602 221.974 163.302 136.2 195.906 167.295 144.17 
247.596 190.878 119.494 245.945 175.073 118.109 214.944 155.226 72.5024 
244.088 182.386 128.44 244.629 174.299 138.338 239.962 191.802 136.054 
234.828 166.377 133.561 213.467 166.042 64.8086 200.655 191.163 162.44 
187.382 170.585 131.817 236.352 193.759 149.627 202.998 161.278 152.542 
224.001 194.173 88.3868 236.031 191.29 89.8631 226.15 215.262 121.792 
194.273 161.791 106.455 222.003 219.581 155.87 198.235 175.074 166.487 
181.904 199.775 160.762 229.184 180.014 76.0128 
CELLS 220 1100
4 0 1 2 3 
4 4 5 6 7 
4 8 9 10 11 
4 12 13 14 15 
4 2 16 1 17 
4 18 19 2 0 
4 20 21 22 23 
4 24 6 4 25 
4 8 10 6 11 
4 26 27 28 29 
4 30 11 31 32 
4 29 33 34 35 
4 24 36 31 25 
4 37 19 38 39 
4 27 36 24 33 
4 6 27 40 22 
4 41 30 42 18 
4 43 44 45 19 
4 44 17 46 47 
4 48 49 2 17 
4 0 17 2 1 
4 50 24 4 25 
4 51 2 52 3 
4 43 45 53 19 
4 54 44 45 53 
4 2 1 52 3 
4 53 44 45 43 
4 11 51 55 10 
4 27 28 40 26 
4 2 56 55 51 
4 24 31 6 25 
4 39 19 57 37 
4 27 36 33 58 
4 43 37 44 19 
4 59 60 19 61 
4 61 49 62 2 
4 51 0 2 3 
4 63 17 16 47 
4 12 13 15 64 
4 11 12 6 14 
4 24 31 4 6 
4 11 55 9 10 
4 41 31 42 30 
4 43 53 65 19 
4 61 19 2 41 
4 2 49 16 17 
4 64 59 62 61 
4 66 9 67 11 
4 67 9 8 11 
4 4 31 27 6 
4 12 6 14 13 
4 34 33 68 35 
4 4 6 40 7 
4 69 62 70 71 
4 16 17 49 48 
4 12 6 40 22 
4 66 2 69 71 
4 69 61 15 72 
4 27 26 40 22 
4 71 52 56 2 
4 16 2 52 71 
4 12 20 13 64 
4 4 33 28 27 
4 24 73 68 35 
4 24 50 4 68 
4 74 47 44 46 
4 43 19 65 75 
4 11 2 55 51 
4 59 49 62 61 
4 27 58 33 29 
4 76 49 71 62 
4 41 19 18 57 
4 53 45 65 19 
4 65 23 75 19 
4 12 27 6 22 
4 41 19 57 39 
4 54 74 44 46 
4 13 6 7 40 
4 54 44 74 45 
4 24 4 33 68 
4 59 60 61 64 
4 65 60 45 77 
4 10 78 79 6 
4 2 62 69 71 
4 65 23 19 60 
4 5 8 79 6 
4 64 61 62 72 
4 8 79 6 10 
4 11 18 51 32 
4 72 12 15 64 
4 12 27 22 21 
4 11 2 51 18 
4 34 26 28 29 
4 27 33 28 29 
4 65 45 60 19 
4 11 12 14 67 
4 51 52 80 3 
4 81 58 27 29 
4 18 2 51 0 
4 33 24 68 35 
4 31 30 25 36 
4 12 21 20 23 
4 6 27 28 40 
4 4 6 28 40 
4 4 27 28 6 
4 56 55 9 11 
4 4 24 33 27 
4 10 51 55 32 
4 72 62 70 69 
4 18 11 30 32 
4 4 25 6 5 
4 67 12 14 15 
4 44 37 0 19 
4 21 26 27 22 
4 42 31 36 30 
4 3 52 80 1 
4 66 9 8 67 
4 11 41 2 18 
4 5 78 6 79 
4 5 8 6 7 
4 2 49 62 71 
4 61 69 62 72 
4 12 22 40 13 
4 12 6 13 40 
4 18 0 51 3 
4 61 12 15 72 
4 71 56 66 2 
4 66 56 9 2 
4 2 56 9 11 
4 66 2 9 11 
4 11 56 55 2 
4 41 19 2 18 
4 14 6 7 13 
4 42 41 18 57 
4 82 1 16 17 
4 8 11 14 67 
4 37 19 43 38 
4 54 44 53 43 
4 81 29 27 26 
4 8 11 6 14 
4 76 16 52 71 
4 34 33 28 68 
4 33 4 28 68 
4 29 33 28 34 
4 82 17 16 63 
4 16 76 2 71 
4 76 49 2 71 
4 16 49 2 76 
4 31 36 24 27 
4 31 36 27 58 
4 4 31 24 27 
4 11 32 10 78 
4 31 11 78 32 
4 60 45 59 19 
4 60 23 61 64 
4 56 80 55 51 
4 2 80 56 51 
4 2 52 80 51 
4 2 52 56 80 
4 60 23 19 61 
4 64 12 20 23 
4 8 9 79 10 
4 19 49 61 2 
4 64 61 72 12 
4 0 17 1 3 
4 2 16 52 1 
4 38 19 75 39 
4 0 48 2 17 
4 44 17 48 0 
4 48 19 44 0 
4 11 51 10 32 
4 24 50 68 73 
4 11 61 2 41 
4 81 26 27 21 
4 19 49 59 61 
4 64 12 23 61 
4 61 11 67 12 
4 67 12 15 61 
4 12 21 22 20 
4 12 22 13 20 
4 41 11 31 30 
4 54 53 45 74 
4 8 6 7 14 
4 42 36 31 58 
4 67 69 15 72 
4 67 61 15 69 
4 69 11 67 61 
4 2 11 69 61 
4 61 2 62 69 
4 66 11 69 2 
4 66 11 67 69 
4 41 11 30 18 
4 45 49 59 48 
4 48 49 59 19 
4 45 48 59 19 
4 45 19 44 48 
4 74 44 48 45 
4 74 44 47 48 
4 44 17 47 48 
4 16 17 48 47 
4 19 49 2 48 
4 19 48 2 0 
4 60 59 45 77 
4 74 53 45 83 
4 38 19 43 75 
4 54 46 44 84 
4 50 85 4 5 
4 85 25 4 5 
4 50 25 4 85 
4 24 25 50 85 
4 85 78 5 79 
4 31 78 25 30 
4 31 32 78 30 
4 6 31 78 25 
4 5 25 6 78 
4 85 25 5 78 
4 31 11 6 78 
4 11 78 10 6 
4 57 0 19 18 
4 37 0 19 57 

CELL_TYPES 220
10
10
10
10
10
10
10
10
10
10
10
10
10
10
10
10
10
10
10
10
10
10
10
10
10
10
10
10
10
10
10
10
10
10
10
10
10
10
10
10
10
10
10
10
10
10
10
10
10
10
10
10
10
10
10
10
10
10
10
10
10
10
10
10
10
10
10
10
10
10
10
10
10
10
10
10
10
10
10
10
10
10
10
10
10
10
10
10
10
10
10
10
10
10
10
10
10
10
10
10
10
10
10
10
10
10
10
10
10
10
10
10
10
10
10
10
10
10
10
10
10
10
10
10
10
10
10
10
10
10
10
10
10
10
10
10
10
10
10
10
10
10
10
10
10
10
10
10
10
10
10
10
10
10
10
10
10
10
10
10
10
10
10
10
10
10
10
10
10
10
10
10
10
10
10
10
10
10
10
10
10
10
10
10
10
10
10
10
10
10
10
10
10
10
10
10
10
10
10
10
10
10
10
10
10
10
10
10
10
10
10
10
10
10
10
10
10
10
10
10

CELL_DATA 220
SCALARS Materials int
LOOKUP_TABLE default
97 97 97 97 97 97 97 97 97 
97 97 97 97 97 97 97 97 97 
97 97 97 97 97 97 97 97 97 
97 97 97 97 97 97 97 97 97 
97 97 97 97 97 97 97 97 97 
97 97 97 97 97 97 97 97 97 
97 97 97 97 97 97 97 97 97 
97 97 97 97 97 97 97 97 97 
97 97 97 97 97 97 97 97 97 
97 97 97 97 97 97 97 97 97 
97 97 97 97 97 97 97 97 97 
97 97 97 97 97 97 97 97 97 
97 97 97 97 97 97 97 97 97 
97 97 97 97 97 97 97 97 97 
97 97 97 97 97 97 97 97 97 
97 97 97 97 97 97 97 97 97 
97 97 97 97 97 97 97 97 97 
97 97 97 97 97 97 97 97 97 
97 97 97 97 97 97 97 97 97 
97 97 97 97 97 97 97 97 97 
97 97 97 97 97 97 97 97 97 
97 97 97 97 97 97 97 97 97 
97 97 97 97 97 97 97 97 97 
97 97 97 97 97 97 97 97 97 
97 97 97 97 
