<?xml version="1.0"?>
<VTKFile type="PolyData" version="0.1" byte_order="LittleEndian" header_type="UInt32" compressor="vtkZLibDataCompressor">
  <PolyData>
    <Piece NumberOfPoints="957" NumberOfVerts="0" NumberOfLines="0" NumberOfStrips="0" NumberOfPolys="1910">
      <PointData>
      </PointData>
      <CellData Scalars="Materials">
        <DataArray type="Int32" Name="Materials" format="ascii" RangeMin="2" RangeMax="2">
          2 2 2 2 2 2
          2 2 2 2 2 2
          2 2 2 2 2 2
          2 2 2 2 2 2
          2 2 2 2 2 2
          2 2 2 2 2 2
          2 2 2 2 2 2
          2 2 2 2 2 2
          2 2 2 2 2 2
          2 2 2 2 2 2
          2 2 2 2 2 2
          2 2 2 2 2 2
          2 2 2 2 2 2
          2 2 2 2 2 2
          2 2 2 2 2 2
          2 2 2 2 2 2
          2 2 2 2 2 2
          2 2 2 2 2 2
          2 2 2 2 2 2
          2 2 2 2 2 2
          2 2 2 2 2 2
          2 2 2 2 2 2
          2 2 2 2 2 2
          2 2 2 2 2 2
          2 2 2 2 2 2
          2 2 2 2 2 2
          2 2 2 2 2 2
          2 2 2 2 2 2
          2 2 2 2 2 2
          2 2 2 2 2 2
          2 2 2 2 2 2
          2 2 2 2 2 2
          2 2 2 2 2 2
          2 2 2 2 2 2
          2 2 2 2 2 2
          2 2 2 2 2 2
          2 2 2 2 2 2
          2 2 2 2 2 2
          2 2 2 2 2 2
          2 2 2 2 2 2
          2 2 2 2 2 2
          2 2 2 2 2 2
          2 2 2 2 2 2
          2 2 2 2 2 2
          2 2 2 2 2 2
          2 2 2 2 2 2
          2 2 2 2 2 2
          2 2 2 2 2 2
          2 2 2 2 2 2
          2 2 2 2 2 2
          2 2 2 2 2 2
          2 2 2 2 2 2
          2 2 2 2 2 2
          2 2 2 2 2 2
          2 2 2 2 2 2
          2 2 2 2 2 2
          2 2 2 2 2 2
          2 2 2 2 2 2
          2 2 2 2 2 2
          2 2 2 2 2 2
          2 2 2 2 2 2
          2 2 2 2 2 2
          2 2 2 2 2 2
          2 2 2 2 2 2
          2 2 2 2 2 2
          2 2 2 2 2 2
          2 2 2 2 2 2
          2 2 2 2 2 2
          2 2 2 2 2 2
          2 2 2 2 2 2
          2 2 2 2 2 2
          2 2 2 2 2 2
          2 2 2 2 2 2
          2 2 2 2 2 2
          2 2 2 2 2 2
          2 2 2 2 2 2
          2 2 2 2 2 2
          2 2 2 2 2 2
          2 2 2 2 2 2
          2 2 2 2 2 2
          2 2 2 2 2 2
          2 2 2 2 2 2
          2 2 2 2 2 2
          2 2 2 2 2 2
          2 2 2 2 2 2
          2 2 2 2 2 2
          2 2 2 2 2 2
          2 2 2 2 2 2
          2 2 2 2 2 2
          2 2 2 2 2 2
          2 2 2 2 2 2
          2 2 2 2 2 2
          2 2 2 2 2 2
          2 2 2 2 2 2
          2 2 2 2 2 2
          2 2 2 2 2 2
          2 2 2 2 2 2
          2 2 2 2 2 2
          2 2 2 2 2 2
          2 2 2 2 2 2
          2 2 2 2 2 2
          2 2 2 2 2 2
          2 2 2 2 2 2
          2 2 2 2 2 2
          2 2 2 2 2 2
          2 2 2 2 2 2
          2 2 2 2 2 2
          2 2 2 2 2 2
          2 2 2 2 2 2
          2 2 2 2 2 2
          2 2 2 2 2 2
          2 2 2 2 2 2
          2 2 2 2 2 2
          2 2 2 2 2 2
          2 2 2 2 2 2
          2 2 2 2 2 2
          2 2 2 2 2 2
          2 2 2 2 2 2
          2 2 2 2 2 2
          2 2 2 2 2 2
          2 2 2 2 2 2
          2 2 2 2 2 2
          2 2 2 2 2 2
          2 2 2 2 2 2
          2 2 2 2 2 2
          2 2 2 2 2 2
          2 2 2 2 2 2
          2 2 2 2 2 2
          2 2 2 2 2 2
          2 2 2 2 2 2
          2 2 2 2 2 2
          2 2 2 2 2 2
          2 2 2 2 2 2
          2 2 2 2 2 2
          2 2 2 2 2 2
          2 2 2 2 2 2
          2 2 2 2 2 2
          2 2 2 2 2 2
          2 2 2 2 2 2
          2 2 2 2 2 2
          2 2 2 2 2 2
          2 2 2 2 2 2
          2 2 2 2 2 2
          2 2 2 2 2 2
          2 2 2 2 2 2
          2 2 2 2 2 2
          2 2 2 2 2 2
          2 2 2 2 2 2
          2 2 2 2 2 2
          2 2 2 2 2 2
          2 2 2 2 2 2
          2 2 2 2 2 2
          2 2 2 2 2 2
          2 2 2 2 2 2
          2 2 2 2 2 2
          2 2 2 2 2 2
          2 2 2 2 2 2
          2 2 2 2 2 2
          2 2 2 2 2 2
          2 2 2 2 2 2
          2 2 2 2 2 2
          2 2 2 2 2 2
          2 2 2 2 2 2
          2 2 2 2 2 2
          2 2 2 2 2 2
          2 2 2 2 2 2
          2 2 2 2 2 2
          2 2 2 2 2 2
          2 2 2 2 2 2
          2 2 2 2 2 2
          2 2 2 2 2 2
          2 2 2 2 2 2
          2 2 2 2 2 2
          2 2 2 2 2 2
          2 2 2 2 2 2
          2 2 2 2 2 2
          2 2 2 2 2 2
          2 2 2 2 2 2
          2 2 2 2 2 2
          2 2 2 2 2 2
          2 2 2 2 2 2
          2 2 2 2 2 2
          2 2 2 2 2 2
          2 2 2 2 2 2
          2 2 2 2 2 2
          2 2 2 2 2 2
          2 2 2 2 2 2
          2 2 2 2 2 2
          2 2 2 2 2 2
          2 2 2 2 2 2
          2 2 2 2 2 2
          2 2 2 2 2 2
          2 2 2 2 2 2
          2 2 2 2 2 2
          2 2 2 2 2 2
          2 2 2 2 2 2
          2 2 2 2 2 2
          2 2 2 2 2 2
          2 2 2 2 2 2
          2 2 2 2 2 2
          2 2 2 2 2 2
          2 2 2 2 2 2
          2 2 2 2 2 2
          2 2 2 2 2 2
          2 2 2 2 2 2
          2 2 2 2 2 2
          2 2 2 2 2 2
          2 2 2 2 2 2
          2 2 2 2 2 2
          2 2 2 2 2 2
          2 2 2 2 2 2
          2 2 2 2 2 2
          2 2 2 2 2 2
          2 2 2 2 2 2
          2 2 2 2 2 2
          2 2 2 2 2 2
          2 2 2 2 2 2
          2 2 2 2 2 2
          2 2 2 2 2 2
          2 2 2 2 2 2
          2 2 2 2 2 2
          2 2 2 2 2 2
          2 2 2 2 2 2
          2 2 2 2 2 2
          2 2 2 2 2 2
          2 2 2 2 2 2
          2 2 2 2 2 2
          2 2 2 2 2 2
          2 2 2 2 2 2
          2 2 2 2 2 2
          2 2 2 2 2 2
          2 2 2 2 2 2
          2 2 2 2 2 2
          2 2 2 2 2 2
          2 2 2 2 2 2
          2 2 2 2 2 2
          2 2 2 2 2 2
          2 2 2 2 2 2
          2 2 2 2 2 2
          2 2 2 2 2 2
          2 2 2 2 2 2
          2 2 2 2 2 2
          2 2 2 2 2 2
          2 2 2 2 2 2
          2 2 2 2 2 2
          2 2 2 2 2 2
          2 2 2 2 2 2
          2 2 2 2 2 2
          2 2 2 2 2 2
          2 2 2 2 2 2
          2 2 2 2 2 2
          2 2 2 2 2 2
          2 2 2 2 2 2
          2 2 2 2 2 2
          2 2 2 2 2 2
          2 2 2 2 2 2
          2 2 2 2 2 2
          2 2 2 2 2 2
          2 2 2 2 2 2
          2 2 2 2 2 2
          2 2 2 2 2 2
          2 2 2 2 2 2
          2 2 2 2 2 2
          2 2 2 2 2 2
          2 2 2 2 2 2
          2 2 2 2 2 2
          2 2 2 2 2 2
          2 2 2 2 2 2
          2 2 2 2 2 2
          2 2 2 2 2 2
          2 2 2 2 2 2
          2 2 2 2 2 2
          2 2 2 2 2 2
          2 2 2 2 2 2
          2 2 2 2 2 2
          2 2 2 2 2 2
          2 2 2 2 2 2
          2 2 2 2 2 2
          2 2 2 2 2 2
          2 2 2 2 2 2
          2 2 2 2 2 2
          2 2 2 2 2 2
          2 2 2 2 2 2
          2 2 2 2 2 2
          2 2 2 2 2 2
          2 2 2 2 2 2
          2 2 2 2 2 2
          2 2 2 2 2 2
          2 2 2 2 2 2
          2 2 2 2 2 2
          2 2 2 2 2 2
          2 2 2 2 2 2
          2 2 2 2 2 2
          2 2 2 2 2 2
          2 2 2 2 2 2
          2 2 2 2 2 2
          2 2 2 2 2 2
          2 2 2 2 2 2
          2 2 2 2 2 2
          2 2 2 2 2 2
          2 2 2 2 2 2
          2 2 2 2 2 2
          2 2 2 2 2 2
          2 2 2 2 2 2
          2 2 2 2 2 2
          2 2 2 2 2 2
          2 2 2 2 2 2
          2 2 2 2 2 2
          2 2 2 2 2 2
          2 2 2 2 2 2
          2 2 2 2 2 2
          2 2 2 2 2 2
          2 2 2 2 2 2
          2 2 2 2 2 2
          2 2 2 2 2 2
          2 2 2 2 2 2
          2 2 2 2 2 2
          2 2 2 2 2 2
          2 2
        </DataArray>
      </CellData>
      <Points>
        <DataArray type="Float32" Name="Points" NumberOfComponents="3" format="ascii" RangeMin="369.3903214" RangeMax="422.45199272">
          286.98852539 230.42852783 123.1194458 287.19641113 232.17919922 119.97312927
          290.27444458 229.94441223 120.7644577 289.19665527 227.24856567 124.61987305
          284.52563477 229.5778656 124.72740173 283.64724731 232.17382813 123.28946686
          294.18508911 215.68531799 161.53575134 291.14624023 215.51623535 161.46260071
          292.15643311 214.4382019 158.78143311 296.21261597 214.59793091 158.88034058
          296.36795044 217.00666809 163.47062683 292.39486694 218.92022705 164.37739563
          285.02337646 244.62892151 125.98550415 285.14996338 245.75860596 128.54127502
          286.56246948 244.68371582 126.570961 283.03588867 244.21351624 128.5287323
          285.68881226 244.85905457 125.16200256 283.75701904 245.38737488 124.44247437
          267.78106689 259.47412109 127.94297028 272.35357666 259.32183838 128.06640625
          270.79348755 263.21447754 127.30986786 269.93920898 257.60540771 130.43423462
          266.67333984 257.51470947 130.317276 267.26293945 262.84637451 126.87788391
          264.66790771 258.93618774 127.43533325 288.75112915 245.54058838 124.34993744
          285.80276489 244.53222656 121.52568817 288.60299683 222.38883972 135.37579346
          290.49990845 219.21260071 137.76109314 286.16494751 221.9564209 137.62036133
          292.84851074 221.26947021 135.55075073 290.27120972 223.52845764 131.77331543
          287.45617676 224.49201965 130.47410583 284.78015137 223.56829834 135.02284241
          280.61428833 241.90951538 129.67877197 282.12057495 244.49641418 131.85804749
          285.92984009 245.67964172 131.75924683 280.11203003 247.04789734 127.39800262
          280.456604 242.06437683 125.14300537 276.47103882 225.85514832 157.27705383
          277.38671875 229.14785767 157.48675537 274.09542847 227.69241333 154.02125549
          279.26013184 229.06340027 160.33557129 281.04226685 226.18539429 160.41427612
          274.88470459 223.78601074 152.74717712 276.94250488 222.98944092 155.42555237
          279.0954895 223.54006958 159.69538879 284.72415161 237.54177856 115.69169617
          281.0284729 236.01075745 116.89103699 279.54348755 239.22076416 115.09455109
          285.02636719 233.92584229 117.76342773 287.45596313 234.66926575 113.02948761
          281.84439087 241.24108887 115.47493744 285.84185791 241.15376282 116.42906189
          288.8274231 238.62770081 115.62932587 286.85864258 237.77810669 113.10058594
          278.25402832 237.99613953 124.76026154 278.17959595 239.34677124 129.54379272
          279.20733643 237.26237488 120.87234497 279.87814331 234.85803223 123.45266724
          276.16702271 238.16911316 122.06793213 275.63619995 240.57829285 126.4644928
          278.94430542 234.57173157 126.89679718 277.34136963 236.81045532 128.17860413
          297.23422241 225.30123901 127.25834656 298.59683228 223.19818115 129.91661072
          293.78704834 223.59819031 128.28678894 301.59921265 227.33596802 127.65762329
          298.18551636 228.87953186 124.27483368 293.09246826 225.92378235 125.106987
          296.15151978 226.44169617 124.51303101 309.77301025 227.90663147 140.98600769
          306.33575439 224.27958679 141.02224731 308.78851318 227.80911255 137.59771729
          312.41531372 231.23814392 139.14021301 312.6003418 229.53825378 143.51290894
          310.80996704 226.64254761 143.94932556 302.75601196 251.49855042 141.91233826
          299.4367981 251.48710632 141.21710205 301.39782715 251.7182312 145.498703
          300.94723511 250.03967285 137.10458374 304.5758667 249.32824707 138.60339355
          304.93148804 251.20654297 143.99906921 306.38504028 248.97317505 142.52566528
          280.75054932 257.45623779 125.33156586 278.49291992 261.05490112 124.06324005
          276.92385864 258.83404541 127.44030762 278.53457642 253.91392517 128.12364197
          281.64489746 254.08151245 126.24463654 283.71554565 254.99105835 121.94017029
          281.43945313 259.48510742 121.28042603 294.1031189 248.06692505 133.77023315
          297.09402466 249.1661377 135.42353821 296.15640259 247.92089844 131.40795898
          293.21508789 247.44801331 130.21691895 291.09710693 247.76760864 134.98283386
          293.31640625 249.91874695 137.52346802 282.12783813 250.84577942 124.6279068
          280.1164856 250.86016846 127.47502899 283.09909058 247.44177246 124.47286987
          283.74639893 251.70124817 121.89906311 282.43832397 248.97406006 126.98068237
          289.74807739 246.4024353 129.66020203 288.45071411 246.14137268 133.93527222
          287.60870361 245.38348389 127.62823486 291.61849976 246.79716492 125.16017914
          293.41952515 248.00448608 127.24790955 283.72094727 257.29867554 101.12380219
          283.70089722 260.05374146 104.97221375 284.97607422 256.10638428 104.87770081
          282.82363892 254.92320251 96.887290955 283.72723389 259.42858887 97.996887207
          285.24121094 252.94142151 100.58493042 283.76296997 262.25231934 100.35443115
          286.04644775 253.07344055 103.8372345 283.73065186 247.22952271 121.31491852
          285.54058838 250.64157104 112.0776825 286.19815063 250.40895081 108.97219849
          286.11022949 253.61613464 110.88327026 283.75326538 245.58288574 113.09221649
          284.28292847 245.38803101 109.97405243 284.78671265 251.5884552 114.91783142
          284.90356445 248.54963684 115.51902771 285.96035767 247.33831787 108.2273407
          301.34735107 243.36231995 116.77239227 299.82162476 239.43328857 115.66426849
          298.01171875 243.29553223 115.99359894 297.70291138 245.52099609 118.58750916
          301.25772095 246.4238739 118.84980774 303.93978882 242.49430847 118.13702393
          303.50039673 240.8863678 115.56652832 293.66711426 245.78686523 120.86439514
          298.59338379 248.77104187 121.75354767 295.51434326 247.8694458 124.30524445
          293.68890381 242.88058472 118.24524689 289.77639771 244.78567505 120.61769867
          270.22305298 239.11177063 143.41226196 272.25073242 241.46937561 142.33299255
          272.04547119 237.58389282 139.86915588 272.08938599 235.47096252 142.29946899
          270.2293396 236.18128967 145.44873047 271.51126099 242.5836792 146.77365112
          269.88446045 240.08430481 147.07427979 283.85083008 243.95663452 118.43304443
          284.59466553 247.00541687 118.16061401 287.06536865 243.18371582 118.91894531
          283.94821167 247.16314697 140.31253052 284.26348877 248.65524292 143.51698303
          287.57614136 249.09004211 141.51394653 286.09527588 246.65707397 137.31378174
          280.08108521 245.87030029 141.89323425 280.48626709 244.98939514 137.70703125
          283.83969116 249.75866699 119.21556854 283.87097168 253.60441589 117.12625885
          265.15985107 248.70095825 110.7024231 268.22338867 246.69873047 111.29163361
          267.07699585 248.14453125 113.95877075 264.12188721 250.56567383 114.06672668
          264.31549072 248.2371521 107.14407349 267.61627197 247.14793396 108.11257935
          263.01580811 250.20220947 109.09494019 274.91918945 242.27879333 111.38267517
          276.50839233 239.3846283 113.5544281 273.0295105 242.02154541 116.44981384
          277.43225098 240.33201599 109.73792267 272.28805542 244.61888123 111.46199036
          274.63800049 243.05058289 107.0655899 301.69699097 249.12271118 126.58763123
          301.87860107 249.13378906 123.03739166 298.38623047 249.13008118 125.71633148
          304.63977051 247.95210266 124.06401062 301.37191772 248.78727722 130.0328064
          304.67431641 247.82713318 129.93276978 271.98760986 248.62425232 130.37721252
          269.27328491 244.51295471 130.48097229 273.63146973 244.20373535 130.38890076
          275.06451416 251.80232239 130.48985291 271.72512817 251.96624756 130.32731628
          275.56051636 247.44561768 130.3250885 267.25360107 249.1177063 130.44659424
          289.82470703 242.40652466 117.46147156 292.45120239 239.09536743 115.45756531
          284.16152954 245.03477478 134.53512573 281.10247803 244.35751343 134.74879456
          295.68823242 239.29032898 161.03866577 298.47225952 238.41265869 163.45617676
          300.60891724 238.83003235 160.3381958 294.24835205 235.21928406 163.45620728
          297.98495483 242.44432068 158.88249207 295.17312622 242.07319641 159.93367004
          290.34747314 239.6398468 160.54283142 292.73986816 238.58624268 163.16078186
          267.91220093 269.95385742 108.81787872 265.71517944 271.13964844 105.73593903
          263.80529785 269.13641357 110.4575119 269.80935669 271.60888672 103.75687408
          269.08862305 268.7492981 111.83563995 272.45159912 269.22409058 111.21636963
          272.05432129 270.0657959 106.46977997 260.42193604 258.13342285 82.895378113
          258.65472412 259.53967285 80.641921997 262.40646362 258.3112793 78.951156616
          263.15844727 255.0952301 86.623764038 260.4909668 259.01571655 87.519981384
          263.40985107 255.48773193 82.716827393 257.60913086 258.81826782 85.39402771
          276.21658325 274.77770996 87.108001709 279.79324341 273.59399414 84.313285828
          275.50027466 273.68765259 83.109275818 280.25646973 273.3291626 88.536682129
          272.48727417 275.61444092 86.89151001 273.66052246 274.82348633 91.15284729
          277.056427 273.69662476 90.913345337 280.68270874 256.06002808 80.701927185
          278.91592407 256.55432129 76.726989746 281.39187622 259.02371216 80.212364197
          280.17456055 253.52749634 82.607658386 278.49581909 254.47344971 79.054916382
          281.64276123 255.80496216 84.437339783 257.21792603 274.67507935 92.753456116
          257.72131348 273.42730713 97.43447113 260.79043579 275.38690186 94.157066345
          260.61682129 276.4765625 90.705619812 256.59735107 273.0480957 88.740890503
          255.89233398 272.19345093 91.632049561 255.2021637 272.02532959 96.347892761
          310.40957642 226.47807312 160.45054626 308.49099731 229.11572266 161.44578552
          307.13122559 225.56053162 162.77153015 310.06689453 223.02078247 160.3742981
          311.42028809 224.25076294 157.43251038 312.41360474 228.98504639 157.65615845
          311.66021729 231.159729 160.07507324 262.07763672 274.64425659 74.422805786
          257.89736938 273.45419312 76.917350769 261.05477905 274.87451172 78.72693634
          259.75271606 270.81497192 73.771118164 264.22463989 275.13375854 76.569282532
          264.63418579 272.89550781 73.483703613 269.21829224 260.10025024 67.900588989
          270.35931396 262.99246216 69.613166809 270.85144043 259.95074463 70.486251831
          269.41650391 257.31564331 70.314216614 265.16558838 257.02319336 67.695121765
          265.7310791 261.76696777 67.676528931 267.85855103 265.03057861 67.886283875
          270.54934692 248.51974487 93.807914734 273.55355835 247.19424438 97.418754578
          268.67745972 249.69647217 96.343162537 274.25515747 246.5344696 94.169166565
          268.01583862 250.56513977 93.126716614 270.98245239 247.34779358 90.992492676
          283.40829468 212.95147705 148.71617126 286.86764526 213.65029907 148.56349182
          285.55548096 211.23623657 151.42503357 282.6656189 213.34291077 152.17651367
          283.90444946 215.91142273 148.00361633 281.02362061 214.72366333 149.88479614
          310.57684326 241.83204651 153.37852478 307.87945557 241.646698 154.7885437
          311.6385498 238.99607849 153.91351318 310.04202271 243.31141663 150.7191925
          312.97775269 239.71533203 150.24534607 258.62475586 259.64675903 99.674613953
          256.9303894 262.65286255 98.953575134 259.16534424 261.11203003 96.696090698
          260.5045166 258.2437439 97.255851746 260.74716187 257.14678955 100.20301056
          259.35931396 258.7093811 102.67261505 256.52841187 261.57818604 102.54541779
          279.59240723 242.37155151 156.94029236 276.93075562 241.90022278 154.57495117
          276.62231445 240.11938477 157.40057373 279.47140503 238.97850037 157.80503845
          280.28988647 245.11906433 154.39219666 282.2130127 240.39402771 157.92431641
          283.93438721 244.68963623 155.47640991 299.63711548 215.60798645 145.90483093
          296.62347412 214.54690552 145.4989624 298.44433594 216.97703552 143.42134094
          302.48687744 213.14509583 148.52905273 297.55474854 213.19319153 148.31626892
          303.70083618 217.34161377 146.1807251 302.18997192 218.08396912 142.94406128
          310.88735962 236.18264771 127.27534485 309.54647827 235.75636292 124.23109436
          311.1463623 238.70596313 124.68214417 309.13671875 233.81111145 128.49339294
          311.85754395 238.55718994 129.66329956 313.10324097 236.26841736 132.34004211
          310.7036438 233.3380127 131.40150452 256.54208374 261.09848022 115.34109497
          258.17617798 261.26358032 118.92589569 259.7069397 264.54354858 117.38702393
          257.50244141 264.50662231 114.41805267 255.97093201 262.1819458 112.12852478
          257.08618164 258.59234619 113.59539032 256.81958008 258.73861694 117.89602661
          287.89910889 228.02104187 166.35604858 286.70675659 230.23342896 164.10067749
          286.18643188 224.66442871 163.94233704 289.8604126 223.76713562 166.34811401
          291.82470703 227.26074219 166.46347046 289.46759033 231.9949646 166.20687866
          279.99530029 271.27734375 100.73828125 276.65570068 270.72427368 103.92034149
          280.65664673 269.14572144 105.33340454 282.81573486 267.90698242 101.33921814
          281.88858032 270.11999512 96.786376953 278.54745483 272.63336182 95.663864136
          275.94781494 273.67352295 99.002441406 277.30038452 272.61206055 101.56616974
          277.45391846 226.83700562 143.1292572 279.12298584 224.46888733 144.77374268
          275.91259766 224.47566223 147.54812622 274.2253418 229.03788757 145.74200439
          280.60321045 223.82832336 141.85166931 276.90145874 227.9647522 140.33364868
          279.13064575 226.08934021 139.37677002 275.29876709 230.19065857 141.82350159
          255.6754303 262.76229858 70.542869568 257.60067749 260.72174072 67.792167664
          255.35487366 259.65524292 70.688301086 252.54536438 262.33013916 72.492202759
          258.82794189 264.37197876 67.652374268 253.88665771 266.9621582 71.459342957
          257.04772949 265.23977661 69.856216431 281.87930298 264.52420044 113.09830475
          279.02456665 266.30291748 112.55716705 279.08432007 264.96374512 116.13226318
          283.36871338 262.69656372 108.95869446 281.76098633 265.03094482 107.50007629
          280.38827515 266.99530029 109.48704529 281.79257202 261.94290161 116.60890961
          284.29467773 260.34454346 113.44926453 292.50054932 249.20298767 151.37608337
          293.09713745 251.18293762 147.02207947 288.51153564 249.0355072 149.74884033
          295.79962158 250.07463074 149.92808533 297.39511108 247.03552246 152.00205994
          288.5423584 246.68597412 153.37583923 292.52822876 246.20420837 154.21144104
          275.6411438 271.13571167 73.708602905 278.39105225 270.38699341 76.805480957
          277.87316895 269.15167236 74.100082397 274.62518311 268.11434937 72.582382202
          272.64239502 271.37643433 73.821540833 271.88726807 274.27084351 73.978256226
          275.72061157 273.73065186 77.025856018 312.8454895 242.20582581 139.65013123
          311.71777344 245.22872925 135.57156372 310.98538208 244.74954224 138.74545288
          312.88720703 242.30137634 134.31495667 313.86532593 242.19973755 144.16177368
          314.3359375 239.44332886 142.27394104 310.68118286 245.14247131 142.03175354
          314.0977478 239.82669067 136.30784607 314.78103638 237.29026794 139.69955444
          282.13656616 243.70544434 99.712928772 279.51455688 241.7923584 101.23925781
          279.57809448 243.32794189 97.599861145 284.61578369 247.42805481 100.61322021
          284.97290039 244.75480652 103.80695343 282.39642334 241.14840698 103.40408325
          280.40264893 246.53552246 97.495170593 283.46920776 246.03219604 98.095550537
          251.52059937 268.10375977 82.190544128 251.5839386 268.16183472 77.653106689
          250.68309021 266.11764526 79.902297974 250.41030884 266.40014648 86.853622437
          252.41333008 268.9178772 85.495613098 249.33447266 264.30117798 84.393165588
          254.54850769 271.45227051 84.239471436 253.8000946 271.70709229 79.359352112
          269.47158813 250.35794067 76.783798218 267.67001343 251.72512817 80.006141663
          267.40322876 253.995224 75.400016785 268.89865112 251.78259277 74.12702179
          271.58139038 253.0080719 73.7554245 271.71224976 249.4599762 78.798225403
          273.78817749 250.78749084 75.807937622 283.818573 264.70373535 90.065193176
          283.52346802 268.62918091 89.098144531 283.70669556 268.087677 93.127334595
          283.80554199 260.21685791 90.507820129 283.87927246 261.9420166 87.009872437
          283.00402832 265.4848938 85.110870361 283.83395386 263.38793945 94.124313354
          306.02233887 215.07699585 156.82836914 302.3104248 212.29125977 155.68385315
          305.04022217 213.03062439 152.93766785 302.7479248 215.20248413 157.65428162
          307.11672974 218.84066772 158.10884094 303.45083618 217.02067566 160.43061829
          307.62670898 217.52201843 154.85249329 307.96871948 214.61824036 153.25602722
          268.78442383 274.76153564 96.971496582 272.02911377 274.52679443 99.397781372
          273.18914795 274.79199219 96.439048767 269.10220337 274.06304932 100.67133331
          263.66143799 274.62139893 96.851821899 266.15155029 274.62985229 99.466064453
          267.55023193 275.74215698 93.447929382 271.37634277 275.49072266 93.949653625
          255.99441528 269.31530762 106.24989319 254.17437744 269.09124756 102.37414551
          253.76342773 265.85562134 104.51742554 259.44848633 268.91162109 109.36539459
          258.30056763 272.27902222 105.74538422 256.37628174 267.67208862 109.08331299
          257.02774048 271.89779663 102.25785065 254.4677887 264.91390991 108.17689514
          300.04110718 229.16523743 166.31488037 295.85293579 227.07244873 166.24116516
          301.23110962 226.14910889 166.49046326 297.56057739 232.31867981 165.50141907
          301.93710327 231.31985474 163.25814819 303.27844238 228.58488464 163.24021912
          296.37176514 232.51094055 115.64227295 300.7723999 232.62075806 113.91706085
          301.20556641 232.02593994 118.60236359 297.33172607 230.35531616 119.24370575
          293.06039429 231.88800049 118.47367096 292.19812012 232.66011047 113.58410645
          293.83602905 235.06015015 112.65802002 297.68304443 233.2563324 112.55932617
          261.41397095 252.28970337 121.39438629 259.71655273 254.05523682 118.36362457
          262.49926758 251.43533325 117.63401031 261.61581421 251.52033997 124.52812958
          259.25939941 254.64907837 121.47447968 263.87600708 249.68106079 119.80386353
          264.93713379 248.62168884 122.52597809 315.04995728 231.34321594 150.85368347
          315.12149048 234.2028656 147.18164063 315.11981201 234.7766571 150.57389832
          314.10290527 230.50430298 147.24621582 313.05361938 234.16264343 154.68254089
          313.61138916 231.12208557 154.5279541 314.10473633 228.01089478 151.59449768
          250.59684753 265.36932373 93.4532547 252.52038574 268.60696411 95.130157471
          252.34503174 268.16378784 92.016410828 251.573349 265.52410889 90.037391663
          252.50698853 262.57672119 90.171913147 253.21043396 263.10760498 93.728019714
          253.84010315 264.01623535 97.005714417 252.08576965 266.54147339 97.41078949
          271.74008179 265.14013672 118.66104126 271.71774292 266.87564087 114.72982025
          269.25653076 266.89730835 117.40588379 269.34414673 264.52941895 120.69580841
          275.62411499 265.33349609 117.95484161 274.95819092 263.44900513 121.36507416
          272.0229187 262.55899048 123.35836792 279.96975708 229.29220581 132.15382385
          281.85406494 226.3848114 134.11994934 280.04135132 227.09883118 136.5513916
          282.24676514 229.10591125 129.18725586 279.31930542 232.04119873 129.67582703
          278.13354492 230.2119751 134.6438446 277.27566528 231.82328796 132.067276
          280.89501953 252.0852356 91.380981445 278.11029053 248.75512695 92.505271912
          279.64471436 250.8014679 88.460075378 281.38128662 252.82171631 94.707496643
          279.97067261 249.77226257 94.94203949 282.8934021 255.94526672 91.385620117
          281.65692139 254.07972717 87.875930786 265.20846558 276.51733398 84.965179443
          268.59735107 275.70736694 85.837882996 268.22888184 277.04962158 81.204795837
          263.01135254 276.24258423 88.085334778 266.49914551 275.8949585 88.769180298
          264.34490967 277.00256348 82.151824951 261.56539917 275.90518188 82.476226807
          269.21017456 244.36930847 120.70646667 266.6322937 247.22631836 120.00421143
          268.42962646 246.25683594 117.39409637 267.38031006 246.17651367 123.05389404
          271.93466187 242.60128784 119.63893127 271.57183838 241.62727356 123.97954559
          269.16778564 243.86405945 124.94358826 270.78161621 244.27394104 116.60114288
          271.81195068 235.2610321 153.60202026 271.15151978 238.35003662 151.6932373
          270.84991455 234.99327087 150.80935669 272.89694214 231.0990448 152.97824097
          274.92886353 234.67797852 155.17457581 274.37280273 239.74964905 154.40328979
          301.41098022 221.90400696 136.91799927 298.36517334 219.62675476 137.30380249
          298.52410889 222.13528442 133.40014648 303.13189697 224.43110657 134.6156311
          302.25595093 221.27832031 141.1859436 304.39874268 223.26530457 138.21954346
          283.74841309 217.69346619 158.55342102 280.84387207 217.5643158 156.50495911
          283.47518921 214.58721924 155.77957153 283.94189453 220.29563904 162.06166077
          280.82418823 219.6464386 159.9671936 286.08612061 215.42155457 157.72657776
          286.04656982 217.20323181 161.54826355 311.00384521 221.37348938 149.63249207
          308.16674805 218.03233337 150.43963623 307.40148926 219.59063721 147.67446899
          310.63375854 224.02967834 147.260849 313.81552124 224.71487427 150.37802124
          312.20077515 222.35603333 153.35220337 311.56674194 219.42591858 153.94314575