<?xml version="1.0"?>
<VTKFile type="PolyData" version="0.1" byte_order="LittleEndian" header_type="UInt32" compressor="vtkZLibDataCompressor">
  <PolyData>
    <Piece NumberOfPoints="957" NumberOfVerts="0" NumberOfLines="0" NumberOfStrips="0" NumberOfPolys="1910">
      <PointData>
      </PointData>
      <CellData Scalars="Materials">
        <DataArray type="Int32" Name="Materials" format="ascii" RangeMin="2" RangeMax="2">
          2 2 2 2 2 2
          2 2 2 2 2 2
          2 2 2 2 2 2
          2 2 2 2 2 2
          2 2 2 2 2 2
          2 2 2 2 2 2
          2 2 2 2 2 2
          2 2 2 2 2 2
          2 2 2 2 2 2
          2 2 2 2 2 2
          2 2 2 2 2 2
          2 2 2 2 2 2
          2 2 2 2 2 2
          2 2 2 2 2 2
          2 2 2 2 2 2
          2 2 2 2 2 2
          2 2 2 2 2 2
          2 2 2 2 2 2
          2 2 2 2 2 2
          2 2 2 2 2 2
          2 2 2 2 2 2
          2 2 2 2 2 2
          2 2 2 2 2 2
          2 2 2 2 2 2
          2 2 2 2 2 2
          2 2 2 2 2 2
          2 2 2 2 2 2
          2 2 2 2 2 2
          2 2 2 2 2 2
          2 2 2 2 2 2
          2 2 2 2 2 2
          2 2 2 2 2 2
          2 2 2 2 2 2
          2 2 2 2 2 2
          2 2 2 2 2 2
          2 2 2 2 2 2
          2 2 2 2 2 2
          2 2 2 2 2 2
          2 2 2 2 2 2
          2 2 2 2 2 2
          2 2 2 2 2 2
          2 2 2 2 2 2
          2 2 2 2 2 2
          2 2 2 2 2 2
          2 2 2 2 2 2
          2 2 2 2 2 2
          2 2 2 2 2 2
          2 2 2 2 2 2
          2 2 2 2 2 2
          2 2 2 2 2 2
          2 2 2 2 2 2
          2 2 2 2 2 2
          2 2 2 2 2 2
          2 2 2 2 2 2
          2 2 2 2 2 2
          2 2 2 2 2 2
          2 2 2 2 2 2
          2 2 2 2 2 2
          2 2 2 2 2 2
          2 2 2 2 2 2
          2 2 2 2 2 2
          2 2 2 2 2 2
          2 2 2 2 2 2
          2 2 2 2 2 2
          2 2 2 2 2 2
          2 2 2 2 2 2
          2 2 2 2 2 2
          2 2 2 2 2 2
          2 2 2 2 2 2
          2 2 2 2 2 2
          2 2 2 2 2 2
          2 2 2 2 2 2
          2 2 2 2 2 2
          2 2 2 2 2 2
          2 2 2 2 2 2
          2 2 2 2 2 2
          2 2 2 2 2 2
          2 2 2 2 2 2
          2 2 2 2 2 2
          2 2 2 2 2 2
          2 2 2 2 2 2
          2 2 2 2 2 2
          2 2 2 2 2 2
          2 2 2 2 2 2
          2 2 2 2 2 2
          2 2 2 2 2 2
          2 2 2 2 2 2
          2 2 2 2 2 2
          2 2 2 2 2 2
          2 2 2 2 2 2
          2 2 2 2 2 2
          2 2 2 2 2 2
          2 2 2 2 2 2
          2 2 2 2 2 2
          2 2 2 2 2 2
          2 2 2 2 2 2
          2 2 2 2 2 2
          2 2 2 2 2 2
          2 2 2 2 2 2
          2 2 2 2 2 2
          2 2 2 2 2 2
          2 2 2 2 2 2
          2 2 2 2 2 2
          2 2 2 2 2 2
          2 2 2 2 2 2
          2 2 2 2 2 2
          2 2 2 2 2 2
          2 2 2 2 2 2
          2 2 2 2 2 2
          2 2 2 2 2 2
          2 2 2 2 2 2
          2 2 2 2 2 2
          2 2 2 2 2 2
          2 2 2 2 2 2
          2 2 2 2 2 2
          2 2 2 2 2 2
          2 2 2 2 2 2
          2 2 2 2 2 2
          2 2 2 2 2 2
          2 2 2 2 2 2
          2 2 2 2 2 2
          2 2 2 2 2 2
          2 2 2 2 2 2
          2 2 2 2 2 2
          2 2 2 2 2 2
          2 2 2 2 2 2
          2 2 2 2 2 2
          2 2 2 2 2 2
          2 2 2 2 2 2
          2 2 2 2 2 2
          2 2 2 2 2 2
          2 2 2 2 2 2
          2 2 2 2 2 2
          2 2 2 2 2 2
          2 2 2 2 2 2
          2 2 2 2 2 2
          2 2 2 2 2 2
          2 2 2 2 2 2
          2 2 2 2 2 2
          2 2 2 2 2 2
          2 2 2 2 2 2
          2 2 2 2 2 2
          2 2 2 2 2 2
          2 2 2 2 2 2
          2 2 2 2 2 2
          2 2 2 2 2 2
          2 2 2 2 2 2
          2 2 2 2 2 2
          2 2 2 2 2 2
          2 2 2 2 2 2
          2 2 2 2 2 2
          2 2 2 2 2 2
          2 2 2 2 2 2
          2 2 2 2 2 2
          2 2 2 2 2 2
          2 2 2 2 2 2
          2 2 2 2 2 2
          2 2 2 2 2 2
          2 2 2 2 2 2
          2 2 2 2 2 2
          2 2 2 2 2 2
          2 2 2 2 2 2
          2 2 2 2 2 2
          2 2 2 2 2 2
          2 2 2 2 2 2
          2 2 2 2 2 2
          2 2 2 2 2 2
          2 2 2 2 2 2
          2 2 2 2 2 2
          2 2 2 2 2 2
          2 2 2 2 2 2
          2 2 2 2 2 2
          2 2 2 2 2 2
          2 2 2 2 2 2
          2 2 2 2 2 2
          2 2 2 2 2 2
          2 2 2 2 2 2
          2 2 2 2 2 2
          2 2 2 2 2 2
          2 2 2 2 2 2
          2 2 2 2 2 2
          2 2 2 2 2 2
          2 2 2 2 2 2
          2 2 2 2 2 2
          2 2 2 2 2 2
          2 2 2 2 2 2
          2 2 2 2 2 2
          2 2 2 2 2 2
          2 2 2 2 2 2
          2 2 2 2 2 2
          2 2 2 2 2 2
          2 2 2 2 2 2
          2 2 2 2 2 2
          2 2 2 2 2 2
          2 2 2 2 2 2
          2 2 2 2 2 2
          2 2 2 2 2 2
          2 2 2 2 2 2
          2 2 2 2 2 2
          2 2 2 2 2 2
          2 2 2 2 2 2
          2 2 2 2 2 2
          2 2 2 2 2 2
          2 2 2 2 2 2
          2 2 2 2 2 2
          2 2 2 2 2 2
          2 2 2 2 2 2
          2 2 2 2 2 2
          2 2 2 2 2 2
          2 2 2 2 2 2
          2 2 2 2 2 2
          2 2 2 2 2 2
          2 2 2 2 2 2
          2 2 2 2 2 2
          2 2 2 2 2 2
          2 2 2 2 2 2
          2 2 2 2 2 2
          2 2 2 2 2 2
          2 2 2 2 2 2
          2 2 2 2 2 2
          2 2 2 2 2 2
          2 2 2 2 2 2
          2 2 2 2 2 2
          2 2 2 2 2 2
          2 2 2 2 2 2
          2 2 2 2 2 2
          2 2 2 2 2 2
          2 2 2 2 2 2
          2 2 2 2 2 2
          2 2 2 2 2 2
          2 2 2 2 2 2
          2 2 2 2 2 2
          2 2 2 2 2 2
          2 2 2 2 2 2
          2 2 2 2 2 2
          2 2 2 2 2 2
          2 2 2 2 2 2
          2 2 2 2 2 2
          2 2 2 2 2 2
          2 2 2 2 2 2
          2 2 2 2 2 2
          2 2 2 2 2 2
          2 2 2 2 2 2
          2 2 2 2 2 2
          2 2 2 2 2 2
          2 2 2 2 2 2
          2 2 2 2 2 2
          2 2 2 2 2 2
          2 2 2 2 2 2
          2 2 2 2 2 2
          2 2 2 2 2 2
          2 2 2 2 2 2
          2 2 2 2 2 2
          2 2 2 2 2 2
          2 2 2 2 2 2
          2 2 2 2 2 2
          2 2 2 2 2 2
          2 2 2 2 2 2
          2 2 2 2 2 2
          2 2 2 2 2 2
          2 2 2 2 2 2
          2 2 2 2 2 2
          2 2 2 2 2 2
          2 2 2 2 2 2
          2 2 2 2 2 2
          2 2 2 2 2 2
          2 2 2 2 2 2
          2 2 2 2 2 2
          2 2 2 2 2 2
          2 2 2 2 2 2
          2 2 2 2 2 2
          2 2 2 2 2 2
          2 2 2 2 2 2
          2 2 2 2 2 2
          2 2 2 2 2 2
          2 2 2 2 2 2
          2 2 2 2 2 2
          2 2 2 2 2 2
          2 2 2 2 2 2
          2 2 2 2 2 2
          2 2 2 2 2 2
          2 2 2 2 2 2
          2 2 2 2 2 2
          2 2 2 2 2 2
          2 2 2 2 2 2
          2 2 2 2 2 2
          2 2 2 2 2 2
          2 2 2 2 2 2
          2 2 2 2 2 2
          2 2 2 2 2 2
          2 2 2 2 2 2
          2 2 2 2 2 2
          2 2 2 2 2 2
          2 2 2 2 2 2
          2 2 2 2 2 2
          2 2 2 2 2 2
          2 2 2 2 2 2
          2 2 2 2 2 2
          2 2 2 2 2 2
          2 2 2 2 2 2
          2 2 2 2 2 2
          2 2 2 2 2 2
          2 2 2 2 2 2
          2 2 2 2 2 2
          2 2 2 2 2 2
          2 2 2 2 2 2
          2 2 2 2 2 2
          2 2 2 2 2 2
          2 2 2 2 2 2
          2 2 2 2 2 2
          2 2 2 2 2 2
          2 2 2 2 2 2
          2 2 2 2 2 2
          2 2 2 2 2 2
          2 2 2 2 2 2
          2 2 2 2 2 2
          2 2 2 2 2 2
          2 2 2 2 2 2
          2 2
        </DataArray>
      </CellData>
      <Points>
        <DataArray type="Float32" Name="Points" NumberOfComponents="3" format="ascii" RangeMin="368.91232814" RangeMax="422.65554138">
          286.88342285 230.24267578 122.95602417 287.08764648 231.93258667 119.86727905
          290.23312378 229.70552063 120.62569427 289.13635254 227.05783081 124.44801331
          284.39697266 229.40248108 124.5806427 283.52285767 231.96508789 123.16875458
          294.18655396 215.44529724 161.69197083 291.16040039 215.26885986 161.61485291
          292.16534424 214.22146606 158.97158813 296.21859741 214.3762207 159.05413818
          296.37197876 216.79286194 163.65577698 292.37228394 218.70776367 164.56303406
          285.01226807 244.90086365 125.99394226 285.11016846 246.00512695 128.47651672
          286.53305054 244.94250488 126.53432465 282.94744873 244.44859314 128.56565857
          285.68453979 245.13191223 125.19758606 283.87585449 245.60185242 124.54107666
          267.76470947 259.64996338 128.19541931 272.37670898 259.49560547 128.32626343
          270.8109436 263.4664917 127.51088715 269.94421387 257.72784424 130.70144653
          266.65167236 257.65472412 130.56642151 267.22650146 263.06970215 127.1007843
          264.63128662 259.13027954 127.66676331 288.68844604 245.7986145 124.32215118
          285.85678101 244.81430054 121.45633698 288.54934692 222.19367981 135.24884033
          290.44168091 219.03166199 137.61079407 286.0718689 221.77380371 137.49920654
          292.81158447 221.09262085 135.39312744 290.22012329 223.31291199 131.68795776
          287.35308838 224.29438782 130.37477112 284.68377686 223.3862915 134.8997345
          280.48483276 242.09280396 129.60900879 282.03927612 244.71913147 131.81336975
          285.88253784 245.91517639 131.75643921 280.20492554 246.9879303 127.62989044
          280.35620117 242.10322571 125.37670898 276.34835815 225.81532288 157.44764709
          277.26733398 229.13415527 157.64447021 273.96176147 227.63540649 154.14189148
          279.16802979 229.0202179 160.53631592 280.93606567 226.16290283 160.61279297
          274.74072266 223.66506958 152.82591248 276.80603027 222.87158203 155.54716492
          278.98800659 223.48727417 159.90333557 284.64572144 237.53482056 115.41253662
          280.85623169 235.81474304 116.75006104 279.54244995 238.89450073 114.97332001
          284.91107178 233.68026733 117.62928772 287.31558228 234.50523376 112.80954742
          282.04867554 241.13690186 115.30643463 285.86914063 241.32133484 116.17120361
          288.80917358 238.85420227 115.41693878 286.7588501 237.98504639 112.88061523
          278.05889893 237.86830139 124.77663422 278.03787231 239.51022339 129.46008301
          279.05883789 237.0242157 120.8085022 279.70285034 234.67861938 123.38212585
          276.05014038 237.89701843 122.08126831 275.60263062 240.35194397 126.62757874
          278.77328491 234.43537903 126.80113983 277.16027832 236.80532837 128.0622406
          297.31729126 225.12463379 127.09918213 298.65213013 223.00543213 129.78382874
          293.77313232 223.38612366 128.16465759 301.72720337 227.18029785 127.50653076
          298.27218628 228.6782074 124.13840485 293.08117676 225.74208069 124.9204483
          296.19308472 226.26841736 124.32142639 309.9395752 227.76960754 140.90852356
          306.48120117 224.1431427 140.90365601 308.96185303 227.66751099 137.53659058
          312.60006714 231.11418152 139.07167053 312.78460693 229.42002869 143.44177246
          310.99209595 226.54693604 143.84129333 302.81259155 251.66975403 141.85643005
          299.43832397 251.6698761 141.1590271 301.42193604 251.90524292 145.52613831
          300.95840454 250.22079468 137.02572632 304.65649414 249.49935913 138.57470703
          305.03372192 251.36611938 144.00627136 306.52218628 249.11108398 142.50595093
          280.85858154 257.59442139 125.53307343 278.5737915 261.28695679 124.23973846
          276.98757935 258.9888916 127.68403625 278.62191772 253.99119568 128.36082458
          281.77111816 254.11453247 126.45220184 283.89004517 255.050354 122.05075073
          281.57202148 259.66400146 121.41818237 294.07119751 248.26821899 133.69451904
          297.08255005 249.35705566 135.34034729 296.13137817 248.13479614 131.3848877
          293.17346191 247.67076111 130.21731567 291.03540039 247.96517944 134.91542053
          293.28265381 250.10417175 137.42355347 282.29342651 250.89286804 124.76630402
          280.23812866 250.90457153 127.67763519 283.28341675 247.46011353 124.5927887
          283.94085693 251.71174622 121.97434998 282.57962036 249.00091553 127.16586304
          289.67965698 246.62606812 129.64186096 288.38986206 246.35334778 133.8899231
          287.55883789 245.62695313 127.58189392 291.54336548 247.03263855 125.09873199
          293.3609314 248.23620605 127.23937988 284.02429199 257.38461304 101.05046844
          283.98171997 260.15652466 104.94248962 285.25402832 256.25067139 104.82208252
          283.14846802 254.86885071 96.770378113 284.0526123 259.38244629 97.98600769
          285.54107666 252.98097229 100.42347717 284.072052 262.27990723 100.38798523
          286.34411621 253.17021179 103.78117371 283.94207764 247.29208374 121.35068512
          285.78735352 250.57559204 112.15859985 286.47763062 250.39253235 108.99514771
          286.36132813 253.64457703 110.94273376 284.00265503 245.45452881 113.09781647
          284.53726196 245.24258423 110.06555939 285.009552 251.60679626 115.02209473
          285.14208984 248.52839661 115.56178284 286.2350769 247.21847534 108.30259705
          301.40557861 243.51994324 116.51607513 299.88150024 239.58670044 115.41002655
          297.98394775 243.44287109 115.71961212 297.65231323 245.71920776 118.36865234
          301.29812622 246.60862732 118.61698914 304.04092407 242.63441467 117.89608765
          303.60061646 241.00419617 115.3012085 293.59191895 246.01159668 120.70787048
          298.54187012 249.00816345 121.62497711 295.44067383 248.1055603 124.24871063
          293.63262939 243.07440186 118.02472687 289.74057007 245.03884888 120.47478485
          270.10073853 239.14778137 143.334198 272.14666748 241.58940125 142.23381042
          271.92077637 237.59170532 139.74824524 271.96517944 235.37129211 142.21606445
          270.10299683 236.12626648 145.38458252 271.40792847 242.71939087 146.75466919
          269.76751709 240.16239929 147.08953857 284.04846191 244.07382202 118.29885864
          284.82629395 246.9757843 118.19958496 287.07305908 243.44076538 118.75042725
          283.89376831 247.36096191 140.23352051 284.222229 248.86264038 143.46690369
          287.51681519 249.2808075 141.45153809 286.04309082 246.8555603 137.22686768
          280.04562378 246.08432007 141.81202698 280.43450928 245.2039032 137.62802124
          284.05319214 249.79037476 119.27394867 284.07946777 253.61799622 117.19152069
          265.01849365 248.34603882 110.76556396 268.08990479 246.33425903 111.31691742
          266.93130493 247.82418823 113.97782898 263.97167969 250.25537109 114.09449768
          264.15197754 247.86669922 107.18515015 267.4942627 246.74543762 108.16090393
          262.83361816 249.8977356 109.1701355 274.73522949 241.99519348 111.31401062
          276.39187622 239.05110168 113.49343872 272.86862183 241.75671387 116.39523315
          277.31335449 239.98216248 109.64347076 272.13796997 244.2808075 111.43228149
          274.50073242 242.68339539 106.97154999 301.74575806 249.34716797 126.60324097
          301.92749023 249.37237549 122.95993805 298.34906006 249.36775208 125.71854401
          304.74395752 248.16957092 124.03178406 301.37442017 248.99919128 130.05264282
          304.75701904 248.0226593 129.91903687 271.98815918 248.62416077 130.64479065
          269.21481323 244.33543396 130.66365051 273.66973877 244.07922363 130.61216736
          275.08068848 251.82185364 130.76307678 271.72647095 251.96929932 130.60267639
          275.60348511 247.36917114 130.57096863 267.2411499 249.1010437 130.71139526
          289.82220459 242.6105957 117.23262024 292.39291382 239.31884766 115.25291443
          284.11532593 245.26234436 134.50064087 281.0324707 244.57867432 134.70606995
          295.70318604 239.45591736 161.19366455 298.49545288 238.57336426 163.61453247
          300.61947632 238.97242737 160.50448608 294.25073242 235.34080505 163.64993286
          297.99630737 242.57637024 159.04658508 295.16427612 242.22221375 160.09233093
          290.34661865 239.81965637 160.69337463 292.74029541 238.73208618 163.33467102
          267.91928101 270.41040039 108.97516632 265.75082397 271.5725708 105.97690582
          263.78369141 269.5645752 110.63483429 269.84371948 272.03216553 104.04706573
          269.09020996 269.16781616 112.0102005 272.48242188 269.65365601 111.37246704
          272.11138916 270.54205322 106.59452057 260.22442627 257.60827637 82.83719635
          258.54675293 258.93786621 80.594192505 262.1991272 257.78186035 78.865509033
          262.89233398 254.68821716 86.543533325 260.28979492 258.52859497 87.629386902
          263.15985107 255.03744507 82.598220825 257.4708252 258.25009155 85.431945801
          276.30355835 275.41253662 87.106277466 279.98916626 274.1383667 84.159934998
          275.6000061 274.32858276 83.099784851 280.43548584 273.88372803 88.543991089
          272.53933716 276.25305176 86.834075928 273.72845459 275.4331665 91.150726318
          277.13790894 274.30648804 90.889343262 281.03475952 255.81178284 80.505989075
          279.2593689 256.3616333 76.425247192 281.79708862 258.94467163 80.0936203
          280.53051758 253.27078247 82.464744568 278.82913208 254.2232666 78.798049927
          282.02709961 255.69662476 84.313026428 257.009552 275.13864136 92.797111511
          257.55841064 273.89569092 97.551170349 260.74093628 275.94622803 94.301460266
          260.52624512 277.06011963 90.733222961 256.34375 273.47576904 88.735717773
          255.63647461 272.58670044 91.589645386 254.97065735 272.40283203 96.457771301
          310.55697632 226.45378113 160.60044861 308.58828735 229.14743042 161.63270569
          307.21246338 225.52433777 162.97859192 310.19293213 222.90841675 160.53103638
          311.61096191 224.19335938 157.51066589 312.60281372 228.96514893 157.7328186
          311.79071045 231.21655273 160.22491455 261.99810791 275.17129517 74.07522583
          257.73873901 273.97537231 76.658561707 260.94387817 275.4765625 78.596138
          259.61074829 271.23934937 73.36138916 264.15304565 275.7069397 76.293708801
          264.61489868 273.40667725 73.092437744 269.44924927 260.0017395 67.390625
          270.59191895 262.98477173 69.099754333 271.06634521 259.81738281 69.97819519
          269.60412598 257.07467651 69.817695618 265.12597656 256.63238525 67.20174408
          265.73718262 261.7822876 67.060470581 267.98696899 265.19873047 67.315177917
          270.35769653 248.06665039 93.855018616 273.39987183 246.73736572 97.412666321
          268.48287964 249.26248169 96.356712341 274.1477356 246.04145813 94.250190735
          267.78091431 250.15177917 93.126029968 270.77719116 246.88343811 90.999938965
          283.32699585 212.76705933 148.5247345 286.78579712 213.48825073 148.36018372
          285.46435547 210.98538208 151.38191223 282.54586792 213.11979675 152.23529053
          283.81637573 215.77394104 147.78721619 280.88830566 214.56140137 149.74707031
          310.69421387 241.97364807 153.47822571 307.98101807 241.79360962 154.89813232
          311.78552246 239.08717346 154.02203369 310.16421509 243.4591217 150.79905701
          313.14535522 239.81726074 150.32106018 258.3949585 259.32028198 99.577781677
          256.74563599 262.2194519 98.88735199 258.94238281 260.72573853 96.627883911
          260.26275635 257.92367554 97.137825012 260.51876831 256.81726074 100.12937164
          259.15820313 258.39096069 102.52198029 256.31033325 261.26416016 102.42673492
          279.56176758 242.51657104 157.10877991 276.86886597 242.04066467 154.72097778
          276.56268311 240.22372437 157.57312012 279.43112183 239.08680725 157.99568176
          280.26229858 245.29298401 154.53370667 282.1829834 240.55912781 158.08532715
          283.91333008 244.85061646 155.62835693 299.69662476 215.42854309 145.74311829
          296.6449585 214.37463379 145.30938721 298.47680664 216.78108215 143.28782654
          302.58233643 212.98121643 148.35891724 297.59912109 213.05940247 148.08595276
          303.81277466 217.1875 146.03363037 302.28201294 217.91905212 142.79937744
          311.12088013 236.08566284 127.19032288 309.77285767 235.62071228 124.1676178
          311.42388916 238.67642212 124.63667297 309.32843018 233.6678009 128.41676331
          312.10455322 238.5682373 129.56573486 313.31771851 236.18333435 132.2374115
          310.88320923 233.19900513 131.31486511 256.3432312 261.181427 115.44532776
          258.01589966 261.45388794 119.0256424 259.58004761 264.79812622 117.56465149
          257.33154297 264.7585144 114.51816559 255.74394226 262.20239258 112.17922974
          256.88745117 258.40679932 113.57833099 256.62841797 258.6836853 117.93423462
          287.82159424 228.02955627 166.57461548 286.62716675 230.28900146 164.30374146
          286.10946655 224.62072754 164.17411804 289.79882813 223.73478699 166.59173584
          291.82556152 227.26211548 166.71017456 289.42895508 232.10900879 166.41195679
          280.14709473 271.72155762 100.87138367 276.70196533 271.11245728 104.26131439
          280.80691528 269.50228882 105.53709412 283.07177734 268.12695313 101.43566895
          282.12142944 270.47991943 96.874603271 278.70620728 273.11920166 95.810058594
          276.04302979 274.20709229 99.113800049 277.40719604 273.06237793 101.79763031
          277.33093262 226.67156982 143.05265808 279.00701904 224.32853699 144.63269043
          275.78997803 224.35435486 147.40490723 274.10107422 228.90568542 145.64743042
          280.4798584 223.65122986 141.78208923 276.77035522 227.81149292 140.2571106
          278.99777222 225.93302917 139.29226685 275.16577148 230.04890442 141.76567078
          255.41999817 262.80960083 70.074028015 257.39059448 260.57305908 67.2733078
          255.13026428 259.2562561 70.343086243 252.27397156 262.26153564 72.052368164
          258.68902588 264.52651978 67.090118408 253.65423584 267.18408203 71.00818634
          256.86029053 265.50601196 69.375747681 282.01864624 264.79763794 113.22182465
          279.10317993 266.68267822 112.73136139 279.16110229 265.29620361 116.30427551
          283.59197998 262.89004517 108.97045898 281.97064209 265.27264404 107.58010864
          280.50845337 267.3760376 109.6219635 281.92483521 262.15365601 116.77269745
          284.49029541 260.48925781 113.53343201 292.4956665 249.37562561 151.4962616
          293.07919312 251.38160706 147.07661438 288.48260498 249.23918152 149.81954956
          295.79730225 250.24662781 150.04283142 297.39981079 247.20327759 152.12910461
          288.53515625 246.89160156 153.4691925 292.53311157 246.40736389 154.30293274
          275.80801392 271.44900513 73.205429077 278.73126221 270.63760376 76.562591553
          278.17169189 269.26202393 73.673843384 274.84924316 268.193573 72.059768677
          272.75524902 271.68759155 73.289878845 271.9744873 274.65890503 73.471969604
          275.97543335 274.14984131 76.734733582 313.04940796 242.29975891 139.64649963
          311.89141846 245.35955811 135.57669067 311.14108276 244.88650513 138.77304077
          313.09918213 242.39637756 134.27284241 314.05361938 242.3081665 144.16464233
          314.5489502 239.51617432 142.24104309 310.82791138 245.2849884 142.01960754
          314.32565308 239.90274048 136.31446838 315.01919556 237.31336975 139.67407227
          282.34066772 243.42196655 99.514442444 279.40859985 241.37527466 101.13978577
          279.63308716 242.97137451 97.347114563 284.92315674 247.32191467 100.48022461
          285.25585938 244.56114197 103.72898102 282.51983643 240.75469971 103.32794189
          280.57446289 246.36239624 97.175971985 283.68405151 245.84844971 97.820251465
          251.2048645 268.44494629 82.200843811 251.25456238 268.46359253 77.513381958
          250.32865906 266.34408569 79.820739746 250.10394287 266.70397949 86.967041016
          252.13931274 269.32614136 85.547218323 248.96743774 264.26150513 84.401557922
          254.28453064 271.87799072 84.302749634 253.53788757 272.16546631 79.319847107
          269.31253052 249.81616211 76.591201782 267.39022827 251.27597046 79.953575134
          267.0798645 253.59745789 75.309761047 268.80044556 251.25302124 73.835319519
          271.71109009 252.60267639 73.346321106 271.62442017 248.86439514 78.702262878
          273.90194702 250.31468201 75.470962524 284.17636108 264.7333374 90.0389328
          283.86856079 268.76742554 89.041656494 284.02511597 268.25552368 93.160202026
          284.16040039 260.07543945 90.463508606 284.25183105 261.8638916 86.908248901
          283.37359619 265.53817749 84.959701538 284.17312622 263.38366699 94.124740601
          306.14569092 214.90866089 156.97009277 302.38092041 212.08108521 155.83323669
          305.1550293 212.80888367 152.92454529 302.80963135 214.98883057 157.80259705
          307.25228882 218.69387817 158.24238586 303.54672241 216.8396759 160.58998108
          307.77154541 217.38755798 154.98847961 308.13650513 214.44636536 153.25508118
          268.78601074 275.33526611 97.073028564 272.05029297 275.08636475 99.510192871
          273.21466064 275.37158203 96.558250427 269.1088562 274.57788086 100.86992645
          263.65759277 275.19213867 96.927688599 266.16638184 275.18203735 99.576751709
          267.5592041 276.3354187 93.524803162 271.4006958 276.09490967 93.998695374
          255.80014038 269.60345459 106.43319702 253.93353271 269.37683105 102.47380066
          253.49398804 265.79922485 104.60470581 259.36322021 269.22509766 109.66368866
          258.19699097 272.66189575 106.00319672 256.23730469 267.90670776 109.38348389
          256.81564331 272.26565552 102.30567169 254.24116516 264.97012329 108.36763
          300.10562134 229.25196838 166.51425171 295.8555603 227.08477783 166.48240662
          301.3196106 226.14987183 166.69624329 297.59329224 232.42988586 165.69953918
          301.9826355 231.36740112 163.46743774 303.35766602 228.61967468 163.44178772
          296.36804199 232.23274231 115.52366638 300.84283447 232.35403442 113.77800751
          301.30053711 231.77618408 118.51094818 297.34997559 230.10232544 119.12162018
          293.04342651 231.62365723 118.35643768 292.18426514 232.41288757 113.39266968
          293.81967163 234.9710083 112.37069702 297.66906738 233.09220886 112.30288696
          261.29055786 252.02859497 121.37937164 259.57489014 253.79367065 118.33281708
          262.36834717 251.14181519 117.59102631 261.50314331 251.27558899 124.48986053
          259.1282959 254.40692139 121.45267487 263.75259399 249.40151978 119.76139832
          264.81713867 248.3639679 122.49427032 315.26657104 231.31855774 150.88478088
          315.34494019 234.17216492 147.18270874 315.31958008 234.82557678 150.64213562
          314.31152344 230.42208862 147.20770264 313.22988892 234.22233582 154.77348328
          313.80566406 231.12031555 154.60717773 314.31939697 227.96142578 151.60389709
          250.26924133 265.27508545 93.516090393 252.2437439 268.89846802 95.223983765
          252.0461731 268.44436646 91.954994202 251.23921204 265.66717529 90.133201599
          252.29907227 262.11749268 90.304450989 253.07121277 262.60412598 93.879753113
          253.65888977 263.56622314 97.113945007 251.78291321 266.52859497 97.548561096
          271.76901245 265.47607422 118.84802246 271.74746704 267.2571106 114.90639496
          269.26837158 267.25009155 117.59605408 269.35671997 264.86236572 120.85791779
          275.65176392 265.68859863 118.13265228 274.98059082 263.77590942 121.52469635
          272.04592896 262.89395142 123.4433136 279.83261108 229.12503052 132.05809021
          281.73791504 226.21406555 134.00080872 279.89816284 226.95271301 136.46185303
          282.11505127 228.92552185 129.08129883 279.17953491 231.89050293 129.55198669
          277.9911499 230.05203247 134.57859802 277.12380981 231.67967224 131.98176575
          281.20788574 251.79348755 91.340301514 278.37182617 248.39077759 92.425392151
          279.96356201 250.48371887 88.410926819 281.69189453 252.63043213 94.571022034
          280.23190308 249.51551819 94.741630554 283.24655151 255.80418396 91.323226929
          281.99835205 253.82218933 87.793197632 265.20700073 277.14703369 85.056350708
          268.66387939 276.33670044 85.874351501 268.2633667 277.69952393 81.283988953
          263.00518799 276.86373901 88.087120056 266.53546143 276.51251221 88.801696777
          264.27398682 277.63409424 82.161514282 261.44741821 276.50790405 82.447799683
          269.07662964 244.11289978 120.66073608 266.49972534 246.96365356 119.95622253
          268.28436279 245.98703003 117.3348465 267.2532959 245.934021 123.02262878
          271.79690552 242.33828735 119.58799744 271.46350098 241.35716248 123.96981049
          269.04528809 243.62339783 124.94126892 270.6328125 243.99876404 116.53870392
          271.71624756 235.25059509 153.76269531 271.05001831 238.409729 151.81036377
          270.72741699 234.95399475 150.887146 272.78128052 231.04618835 153.11901855
          274.84060669 234.68319702 155.35365295 274.29260254 239.82124329 154.56030273
          301.53683472 221.73490906 136.82589722 298.44732666 219.44737244 137.18063354
          298.58843994 221.9359436 133.30630493 303.27429199 224.26625061 134.53381348
          302.38412476 221.13040161 141.05886841 304.53833008 223.09919739 138.14813232
          283.6630249 217.48887634 158.71791077 280.72888184 217.37870789 156.64646912
          283.38204956 214.38885498 155.95245361 283.85070801 220.17570496 162.27806091
          280.72390747 219.51002502 160.17004395 285.99456787 215.21916199 157.89164734
          285.94287109 217.02153015 161.71559143 311.17095947 221.25358582 149.52388
          308.30432129 217.89851379 150.29495239 307.54949951 219.44766235 147.56015015
          310.81216431 223.91239929 147.17579651 314.02151489 224.62817383 150.33718872
          312.4057312 222.2792511 153.3927002 311.75454712 219.30613708 154.00201416
          310.42889404 216.85354614 152.60588074 293.11541748 209.71466064 152.45199585