<?xml version="1.0"?>
<VTKFile type="PolyData" version="0.1" byte_order="LittleEndian" header_type="UInt32" compressor="vtkZLibDataCompressor">
  <PolyData>
    <Piece NumberOfPoints="957" NumberOfVerts="0" NumberOfLines="0" NumberOfStrips="0" NumberOfPolys="1910">
      <PointData>
      </PointData>
      <CellData Scalars="Materials">
        <DataArray type="Int32" Name="Materials" format="ascii" RangeMin="2" RangeMax="2">
          2 2 2 2 2 2
          2 2 2 2 2 2
          2 2 2 2 2 2
          2 2 2 2 2 2
          2 2 2 2 2 2
          2 2 2 2 2 2
          2 2 2 2 2 2
          2 2 2 2 2 2
          2 2 2 2 2 2
          2 2 2 2 2 2
          2 2 2 2 2 2
          2 2 2 2 2 2
          2 2 2 2 2 2
          2 2 2 2 2 2
          2 2 2 2 2 2
          2 2 2 2 2 2
          2 2 2 2 2 2
          2 2 2 2 2 2
          2 2 2 2 2 2
          2 2 2 2 2 2
          2 2 2 2 2 2
          2 2 2 2 2 2
          2 2 2 2 2 2
          2 2 2 2 2 2
          2 2 2 2 2 2
          2 2 2 2 2 2
          2 2 2 2 2 2
          2 2 2 2 2 2
          2 2 2 2 2 2
          2 2 2 2 2 2
          2 2 2 2 2 2
          2 2 2 2 2 2
          2 2 2 2 2 2
          2 2 2 2 2 2
          2 2 2 2 2 2
          2 2 2 2 2 2
          2 2 2 2 2 2
          2 2 2 2 2 2
          2 2 2 2 2 2
          2 2 2 2 2 2
          2 2 2 2 2 2
          2 2 2 2 2 2
          2 2 2 2 2 2
          2 2 2 2 2 2
          2 2 2 2 2 2
          2 2 2 2 2 2
          2 2 2 2 2 2
          2 2 2 2 2 2
          2 2 2 2 2 2
          2 2 2 2 2 2
          2 2 2 2 2 2
          2 2 2 2 2 2
          2 2 2 2 2 2
          2 2 2 2 2 2
          2 2 2 2 2 2
          2 2 2 2 2 2
          2 2 2 2 2 2
          2 2 2 2 2 2
          2 2 2 2 2 2
          2 2 2 2 2 2
          2 2 2 2 2 2
          2 2 2 2 2 2
          2 2 2 2 2 2
          2 2 2 2 2 2
          2 2 2 2 2 2
          2 2 2 2 2 2
          2 2 2 2 2 2
          2 2 2 2 2 2
          2 2 2 2 2 2
          2 2 2 2 2 2
          2 2 2 2 2 2
          2 2 2 2 2 2
          2 2 2 2 2 2
          2 2 2 2 2 2
          2 2 2 2 2 2
          2 2 2 2 2 2
          2 2 2 2 2 2
          2 2 2 2 2 2
          2 2 2 2 2 2
          2 2 2 2 2 2
          2 2 2 2 2 2
          2 2 2 2 2 2
          2 2 2 2 2 2
          2 2 2 2 2 2
          2 2 2 2 2 2
          2 2 2 2 2 2
          2 2 2 2 2 2
          2 2 2 2 2 2
          2 2 2 2 2 2
          2 2 2 2 2 2
          2 2 2 2 2 2
          2 2 2 2 2 2
          2 2 2 2 2 2
          2 2 2 2 2 2
          2 2 2 2 2 2
          2 2 2 2 2 2
          2 2 2 2 2 2
          2 2 2 2 2 2
          2 2 2 2 2 2
          2 2 2 2 2 2
          2 2 2 2 2 2
          2 2 2 2 2 2
          2 2 2 2 2 2
          2 2 2 2 2 2
          2 2 2 2 2 2
          2 2 2 2 2 2
          2 2 2 2 2 2
          2 2 2 2 2 2
          2 2 2 2 2 2
          2 2 2 2 2 2
          2 2 2 2 2 2
          2 2 2 2 2 2
          2 2 2 2 2 2
          2 2 2 2 2 2
          2 2 2 2 2 2
          2 2 2 2 2 2
          2 2 2 2 2 2
          2 2 2 2 2 2
          2 2 2 2 2 2
          2 2 2 2 2 2
          2 2 2 2 2 2
          2 2 2 2 2 2
          2 2 2 2 2 2
          2 2 2 2 2 2
          2 2 2 2 2 2
          2 2 2 2 2 2
          2 2 2 2 2 2
          2 2 2 2 2 2
          2 2 2 2 2 2
          2 2 2 2 2 2
          2 2 2 2 2 2
          2 2 2 2 2 2
          2 2 2 2 2 2
          2 2 2 2 2 2
          2 2 2 2 2 2
          2 2 2 2 2 2
          2 2 2 2 2 2
          2 2 2 2 2 2
          2 2 2 2 2 2
          2 2 2 2 2 2
          2 2 2 2 2 2
          2 2 2 2 2 2
          2 2 2 2 2 2
          2 2 2 2 2 2
          2 2 2 2 2 2
          2 2 2 2 2 2
          2 2 2 2 2 2
          2 2 2 2 2 2
          2 2 2 2 2 2
          2 2 2 2 2 2
          2 2 2 2 2 2
          2 2 2 2 2 2
          2 2 2 2 2 2
          2 2 2 2 2 2
          2 2 2 2 2 2
          2 2 2 2 2 2
          2 2 2 2 2 2
          2 2 2 2 2 2
          2 2 2 2 2 2
          2 2 2 2 2 2
          2 2 2 2 2 2
          2 2 2 2 2 2
          2 2 2 2 2 2
          2 2 2 2 2 2
          2 2 2 2 2 2
          2 2 2 2 2 2
          2 2 2 2 2 2
          2 2 2 2 2 2
          2 2 2 2 2 2
          2 2 2 2 2 2
          2 2 2 2 2 2
          2 2 2 2 2 2
          2 2 2 2 2 2
          2 2 2 2 2 2
          2 2 2 2 2 2
          2 2 2 2 2 2
          2 2 2 2 2 2
          2 2 2 2 2 2
          2 2 2 2 2 2
          2 2 2 2 2 2
          2 2 2 2 2 2
          2 2 2 2 2 2
          2 2 2 2 2 2
          2 2 2 2 2 2
          2 2 2 2 2 2
          2 2 2 2 2 2
          2 2 2 2 2 2
          2 2 2 2 2 2
          2 2 2 2 2 2
          2 2 2 2 2 2
          2 2 2 2 2 2
          2 2 2 2 2 2
          2 2 2 2 2 2
          2 2 2 2 2 2
          2 2 2 2 2 2
          2 2 2 2 2 2
          2 2 2 2 2 2
          2 2 2 2 2 2
          2 2 2 2 2 2
          2 2 2 2 2 2
          2 2 2 2 2 2
          2 2 2 2 2 2
          2 2 2 2 2 2
          2 2 2 2 2 2
          2 2 2 2 2 2
          2 2 2 2 2 2
          2 2 2 2 2 2
          2 2 2 2 2 2
          2 2 2 2 2 2
          2 2 2 2 2 2
          2 2 2 2 2 2
          2 2 2 2 2 2
          2 2 2 2 2 2
          2 2 2 2 2 2
          2 2 2 2 2 2
          2 2 2 2 2 2
          2 2 2 2 2 2
          2 2 2 2 2 2
          2 2 2 2 2 2
          2 2 2 2 2 2
          2 2 2 2 2 2
          2 2 2 2 2 2
          2 2 2 2 2 2
          2 2 2 2 2 2
          2 2 2 2 2 2
          2 2 2 2 2 2
          2 2 2 2 2 2
          2 2 2 2 2 2
          2 2 2 2 2 2
          2 2 2 2 2 2
          2 2 2 2 2 2
          2 2 2 2 2 2
          2 2 2 2 2 2
          2 2 2 2 2 2
          2 2 2 2 2 2
          2 2 2 2 2 2
          2 2 2 2 2 2
          2 2 2 2 2 2
          2 2 2 2 2 2
          2 2 2 2 2 2
          2 2 2 2 2 2
          2 2 2 2 2 2
          2 2 2 2 2 2
          2 2 2 2 2 2
          2 2 2 2 2 2
          2 2 2 2 2 2
          2 2 2 2 2 2
          2 2 2 2 2 2
          2 2 2 2 2 2
          2 2 2 2 2 2
          2 2 2 2 2 2
          2 2 2 2 2 2
          2 2 2 2 2 2
          2 2 2 2 2 2
          2 2 2 2 2 2
          2 2 2 2 2 2
          2 2 2 2 2 2
          2 2 2 2 2 2
          2 2 2 2 2 2
          2 2 2 2 2 2
          2 2 2 2 2 2
          2 2 2 2 2 2
          2 2 2 2 2 2
          2 2 2 2 2 2
          2 2 2 2 2 2
          2 2 2 2 2 2
          2 2 2 2 2 2
          2 2 2 2 2 2
          2 2 2 2 2 2
          2 2 2 2 2 2
          2 2 2 2 2 2
          2 2 2 2 2 2
          2 2 2 2 2 2
          2 2 2 2 2 2
          2 2 2 2 2 2
          2 2 2 2 2 2
          2 2 2 2 2 2
          2 2 2 2 2 2
          2 2 2 2 2 2
          2 2 2 2 2 2
          2 2 2 2 2 2
          2 2 2 2 2 2
          2 2 2 2 2 2
          2 2 2 2 2 2
          2 2 2 2 2 2
          2 2 2 2 2 2
          2 2 2 2 2 2
          2 2 2 2 2 2
          2 2 2 2 2 2
          2 2 2 2 2 2
          2 2 2 2 2 2
          2 2 2 2 2 2
          2 2 2 2 2 2
          2 2 2 2 2 2
          2 2 2 2 2 2
          2 2 2 2 2 2
          2 2 2 2 2 2
          2 2 2 2 2 2
          2 2 2 2 2 2
          2 2 2 2 2 2
          2 2 2 2 2 2
          2 2 2 2 2 2
          2 2 2 2 2 2
          2 2 2 2 2 2
          2 2 2 2 2 2
          2 2 2 2 2 2
          2 2 2 2 2 2
          2 2 2 2 2 2
          2 2 2 2 2 2
          2 2 2 2 2 2
          2 2 2 2 2 2
          2 2 2 2 2 2
          2 2 2 2 2 2
          2 2 2 2 2 2
          2 2 2 2 2 2
          2 2 2 2 2 2
          2 2 2 2 2 2
          2 2 2 2 2 2
          2 2
        </DataArray>
      </CellData>
      <Points>
        <DataArray type="Float32" Name="Points" NumberOfComponents="3" format="ascii" RangeMin="369.15132475" RangeMax="422.55376636">
          286.93597412 230.33560181 123.03773499 287.14202881 232.05589294 119.92020416
          290.25378418 229.82496643 120.69507599 289.16650391 227.15319824 124.53394318
          284.46130371 229.49017334 124.65402222 283.58505249 232.06945801 123.22911072
          294.18582153 215.56530762 161.61386108 291.15332031 215.39254761 161.53872681
          292.16088867 214.32983398 158.87651062 296.21560669 214.48707581 158.96723938
          296.3699646 216.89976501 163.5632019 292.38357544 218.81399536 164.47021484
          285.01782227 244.76489258 125.98972321 285.13006592 245.88186646 128.50889587
          286.54776001 244.81311035 126.55264282 282.9916687 244.33105469 128.54719543
          285.68667603 244.9954834 125.17979431 283.81643677 245.49461365 124.49177551
          267.77288818 259.56204224 128.06919861 272.36514282 259.40872192 128.19633484
          270.80221558 263.34048462 127.4103775 269.94171143 257.66662598 130.56784058
          266.6625061 257.5847168 130.44184875 267.24472046 262.95803833 126.98933411
          264.64959717 259.03323364 127.55104828 288.7197876 245.66960144 124.33604431
          285.82977295 244.67326355 121.49101257 288.57617188 222.29125977 135.31231689
          290.47079468 219.12213135 137.6859436 286.1184082 221.8651123 137.55978394
          292.83004761 221.18104553 135.47193909 290.2456665 223.42068481 131.7306366
          287.40463257 224.39320374 130.42443848 284.73196411 223.47729492 134.96128845
          280.54956055 242.00115967 129.64389038 282.07992554 244.60777283 131.83570862
          285.90618896 245.79740906 131.75784302 280.15847778 247.01791382 127.51394653
          280.40640259 242.08380127 125.25985718 276.40969849 225.8352356 157.36235046
          277.32702637 229.14100647 157.56561279 274.02859497 227.66390991 154.08157349
          279.21408081 229.04180908 160.4359436 280.98916626 226.17414856 160.51353455
          274.81271362 223.72554016 152.7865448 276.87426758 222.93051147 155.48635864
          279.04174805 223.51367188 159.79936218 284.68493652 237.53829956 115.55211639
          280.94235229 235.91275024 116.82054901 279.54296875 239.05763245 115.03393555
          284.96871948 233.80305481 117.69635773 287.38577271 234.58724976 112.91951752
          281.9465332 241.18899536 115.39068604 285.85549927 241.23754883 116.30013275
          288.81829834 238.74095154 115.52313232 286.80874634 237.88157654 112.99060059
          278.15646362 237.93222046 124.76844788 278.10873413 239.42849731 129.50193787
          279.13308716 237.14329529 120.84042358 279.79049683 234.76832581 123.41739655
          276.10858154 238.0330658 122.07460022 275.61941528 240.46511841 126.54603577
          278.85879517 234.5035553 126.84896851 277.25082397 236.80789185 128.12042236
          297.27575684 225.2129364 127.17876434 298.6244812 223.10180664 129.85021973
          293.78009033 223.49215698 128.22572327 301.66320801 227.25813293 127.58207703
          298.22885132 228.77886963 124.20661926 293.08682251 225.83293152 125.01371765
          296.17230225 226.35505676 124.4172287 309.85629272 227.83811951 140.94726563
          306.40847778 224.21136475 140.96295166 308.87518311 227.73831177 137.56715393
          312.50769043 231.17616272 139.10594177 312.69247437 229.47914124 143.4773407
          310.90103149 226.59474182 143.89530945 302.78430176 251.58415222 141.88438416
          299.43756104 251.57849121 141.18806458 301.40988159 251.81173706 145.51242065
          300.95281982 250.13023376 137.06515503 304.61618042 249.4138031 138.58905029
          304.98260498 251.28633118 144.00267029 306.45361328 249.04212952 142.51580811
          280.80456543 257.52532959 125.43231964 278.53335571 261.17092896 124.15148926
          276.95571899 258.91146851 127.56217194 278.57824707 253.95256042 128.24223328
          281.70800781 254.09802246 126.34841919 283.80279541 255.02070618 121.99546051
          281.5057373 259.57455444 121.3493042 294.0871582 248.16757202 133.7323761
          297.08828735 249.26159668 135.38194275 296.14389038 248.02784729 131.39642334
          293.1942749 247.55938721 130.21711731 291.06625366 247.86639404 134.9491272
          293.29953003 250.01145935 137.47351074 282.21063232 250.86932373 124.69710541
          280.17730713 250.88237 127.57633209 283.19125366 247.45094299 124.53282928
          283.84362793 251.70649719 121.93670654 282.50897217 248.98748779 127.07327271
          289.71386719 246.51425171 129.65103149 288.42028809 246.24736023 133.91259766
          287.58377075 245.50521851 127.60506439 291.58093262 246.91490173 125.12945557
          293.39022827 248.12034607 127.24364471 283.87261963 257.34164429 101.08713531
          283.84130859 260.10513306 104.95735168 285.11505127 256.17852783 104.84989166
          282.98605347 254.89602661 96.828834534 283.8899231 259.40551758 97.991447449
          285.3911438 252.9611969 100.5042038 283.91751099 262.26611328 100.37120819
          286.19528198 253.12182617 103.8092041 283.83636475 247.26080322 121.33280182
          285.66397095 250.60858154 112.11814117 286.33789063 250.40074158 108.9836731
          286.23577881 253.63035583 110.91300201 283.87796021 245.51870728 113.09501648
          284.41009521 245.31530762 110.01980591 284.89813232 251.59762573 114.96996307
          285.02282715 248.53901672 115.54040527 286.09771729 247.27839661 108.26496887
          301.37646484 243.44113159 116.6442337 299.8515625 239.50999451 115.53714752
          297.99783325 243.36920166 115.85660553 297.6776123 245.62010193 118.47808075
          301.27792358 246.51625061 118.73339844 303.99035645 242.56436157 118.01655579
          303.55050659 240.94528198 115.43386841 293.6295166 245.89923096 120.78613281
          298.56762695 248.88960266 121.68926239 295.47750854 247.98750305 124.27697754
          293.6607666 242.97749329 118.13498688 289.75848389 244.91226196 120.54624176
          270.16189575 239.129776 143.37322998 272.19869995 241.52938843 142.28340149
          271.98312378 237.58779907 139.80870056 272.02728271 235.42112732 142.25776672
          270.16616821 236.15377808 145.41665649 271.45959473 242.65153503 146.76416016
          269.82598877 240.12335205 147.08190918 283.949646 244.01522827 118.36595154
          284.71047974 246.99060059 118.18009949 287.06921387 243.3122406 118.83468628
          283.92098999 247.26205444 140.27302551 284.24285889 248.75894165 143.49194336
          287.54647827 249.1854248 141.48274231 286.06918335 246.75631714 137.27032471
          280.06335449 245.97731018 141.85263062 280.46038818 245.09664917 137.66752625
          283.94644165 249.77452087 119.24475861 283.97521973 253.61120605 117.15888977
          265.08917236 248.52349854 110.73399353 268.15664673 246.51649475 111.30427551
          267.00415039 247.98435974 113.96829987 264.04678345 250.41052246 114.08061218
          264.23373413 248.05192566 107.16461182 267.55526733 246.94668579 108.13674164
          262.92471313 250.04997253 109.13253784 274.82720947 242.13699341 111.3483429
          276.45013428 239.21786499 113.52393341 272.94906616 241.88912964 116.4225235
          277.37280273 240.15708923 109.69069672 272.2130127 244.44984436 111.44713593
          274.56936646 242.86698914 107.01856995 301.72137451 249.23493958 126.5954361
          301.90304565 249.25308228 122.99866486 298.36764526 249.24891663 125.71743774
          304.69186401 248.06083679 124.04789734 301.37316895 248.89323425 130.04272461
          304.71566772 247.92489624 129.92590332 271.98788452 248.62420654 130.51100159
          269.24404907 244.42419434 130.5723114 273.65060425 244.14147949 130.50053406
          275.07260132 251.81208801 130.62646484 271.72579956 251.96777344 130.46499634
          275.58200073 247.40739441 130.44802856 267.24737549 249.109375 130.57899475
          289.82345581 242.50856018 117.3470459 292.42205811 239.20710754 115.35523987
          284.13842773 245.14855957 134.5178833 281.06747437 244.46809387 134.72743225
          295.69570923 239.37312317 161.11616516 298.4838562 238.49301147 163.53535461
          300.61419678 238.90122986 160.42134094 294.24954224 235.28004456 163.55307007
          297.9906311 242.51034546 158.96453857 295.16870117 242.14770508 160.01300049
          290.3470459 239.72975159 160.61810303 292.74008179 238.65916443 163.24772644
          267.91574097 270.18212891 108.89652252 265.73300171 271.35610962 105.85642242
          263.79449463 269.35049438 110.5461731 269.82653809 271.82052612 103.90196991
          269.0894165 268.95855713 111.92292023 272.4670105 269.43887329 111.29441833
          272.08285522 270.30392456 106.53215027 260.32318115 257.87084961 82.866287231
          258.60073853 259.23876953 80.618057251 262.30279541 258.04656982 78.908332825
          263.02539063 254.89172363 86.583648682 260.39038086 258.77215576 87.574684143
          263.28485107 255.2625885 82.657524109 257.53997803 258.53417969 85.412986755
          276.2600708 275.09512329 87.107139587 279.89120483 273.86618042 84.236610413
          275.55014038 274.00811768 83.104530334 280.34597778 273.60644531 88.540336609
          272.51330566 275.93374634 86.862792969 273.69448853 275.12832642 91.151786804
          277.09716797 274.0015564 90.901344299 280.85873413 255.93589783 80.60395813
          279.08764648 256.45797729 76.576118469 281.59448242 258.98419189 80.152992249
          280.35253906 253.3991394 82.536201477 278.66247559 254.34835815 78.926483154
          281.83493042 255.75079346 84.375183105 257.11373901 274.90686035 92.775283813
          257.63986206 273.66149902 97.49282074 260.76568604 275.66656494 94.229263306
          260.5715332 276.76834106 90.719421387 256.47055054 273.26193237 88.738304138
          255.7644043 272.39007568 91.610847473 255.08641052 272.21408081 96.402832031
          310.48327637 226.46592712 160.52549744 308.53964233 229.13157654 161.53924561
          307.17184448 225.54243469 162.87506104 310.12991333 222.96459961 160.45266724
          311.515625 224.22206116 157.47158813 312.50820923 228.97509766 157.69448853
          311.72546387 231.18814087 160.1499939 262.03787231 274.90777588 74.249015808
          257.8180542 273.71478271 76.787956238 260.99932861 275.17553711 78.66153717
          259.68173218 271.02716064 73.566253662 264.18884277 275.42034912 76.431495667
          264.62454224 273.15109253 73.288070679 269.33377075 260.05099487 67.645606995
          270.47561646 262.98861694 69.356460571 270.95889282 259.88406372 70.232223511
          269.51031494 257.19515991 70.065956116 265.14578247 256.82778931 67.448432922
          265.73413086 261.77462769 67.368499756 267.92276001 265.11465454 67.600730896
          270.45352173 248.29319763 93.831466675 273.47671509 246.96580505 97.415710449
          268.58016968 249.47947693 96.349937439 274.20144653 246.28796387 94.20967865
          267.89837646 250.35845947 93.126373291 270.87982178 247.11561584 90.99621582
          283.36764526 212.85926819 148.62045288 286.82672119 213.5692749 148.46183777
          285.50991821 211.11080933 151.4034729 282.60574341 213.23135376 152.2059021
          283.8604126 215.84268188 147.89541626 280.95596313 214.64253235 149.81593323
          310.63552856 241.90284729 153.42837524 307.93023682 241.72015381 154.84333801
          311.71203613 239.04162598 153.96777344 310.1031189 243.38526917 150.75912476
          313.06155396 239.76629639 150.28320313 258.50985718 259.48352051 99.626197815
          256.8380127 262.43615723 98.920463562 259.05386353 260.91888428 96.661987305
          260.38363647 258.08370972 97.196838379 260.63296509 256.98202515 100.1661911
          259.25875854 258.5501709 102.59729767 256.41937256 261.4211731 102.48607635
          279.5770874 242.44406128 157.02453613 276.89981079 241.97044373 154.64796448
          276.59249878 240.17155457 157.48684692 279.45126343 239.03265381 157.90036011
          280.27609253 245.20602417 154.46295166 282.19799805 240.47657776 158.00482178
          283.92385864 244.77012634 155.55238342 299.66687012 215.51826477 145.82397461
          296.63421631 214.46076965 145.4041748 298.46057129 216.87905884 143.35458374
          302.53460693 213.06315613 148.44398499 297.57693481 213.126297 148.20111084
          303.75680542 217.26455688 146.10717773 302.23599243 218.00151062 142.87171936
          311.00411987 236.13415527 127.23283386 309.65966797 235.6885376 124.19935608
          311.28512573 238.69119263 124.65940857 309.23257446 233.73945618 128.45507813
          311.98104858 238.56271362 129.61451721 313.21047974 236.22587585 132.28872681
          310.79342651 233.26850891 131.35818481 256.44265747 261.13995361 115.39321136
          258.09603882 261.35873413 118.97576904 259.64349365 264.6708374 117.47583771
          257.41699219 264.63256836 114.46810913 255.85743713 262.19216919 112.15387726
          256.98681641 258.49957275 113.58686066 256.72399902 258.71115112 117.91513062
          287.86035156 228.02529907 166.46533203 286.66696167 230.26121521 164.20220947
          286.14794922 224.64257813 164.05822754 289.82962036 223.7509613 166.46992493
          291.82513428 227.26142883 166.58682251 289.44827271 232.05198669 166.30941772
          280.07119751 271.49945068 100.80483246 276.67883301 270.91836548 104.09082794
          280.73178101 269.32400513 105.43524933 282.9437561 268.01696777 101.38744354
          282.00500488 270.29995728 96.830490112 278.62683105 272.87628174 95.736961365
          275.99542236 273.94030762 99.058120728 277.35379028 272.83721924 101.68190002
          277.39242554 226.75428772 143.09095764 279.06500244 224.39871216 144.70321655
          275.85128784 224.41500854 147.47651672 274.16320801 228.9717865 145.69471741
          280.54153442 223.73977661 141.81687927 276.83590698 227.88812256 140.29537964
          279.06420898 226.01118469 139.33451843 275.23226929 230.11978149 141.79458618
          255.54771423 262.78594971 70.308448792 257.49563599 260.6473999 67.532737732
          255.24256897 259.45574951 70.515693665 252.40966797 262.2958374 72.272285461
          258.75848389 264.44924927 67.371246338 253.77044678 267.07312012 71.233764648
          256.95401001 265.37289429 69.615982056 281.94897461 264.66091919 113.1600647
          279.06387329 266.49279785 112.64426422 279.12271118 265.12997437 116.21826935
          283.48034668 262.79330444 108.96457672 281.86581421 265.15179443 107.54009247
          280.44836426 267.18566895 109.55450439 281.85870361 262.04827881 116.69080353
          284.39248657 260.41690063 113.49134827 292.49810791 249.28930664 151.43617249
          293.08816528 251.28227234 147.04934692 288.49707031 249.13734436 149.78419495
          295.79846191 250.16062927 149.98545837 297.39746094 247.11940002 152.06558228
          288.53875732 246.78878784 153.42251587 292.53067017 246.30578613 154.25718689
          275.72457886 271.2923584 73.457015991 278.56115723 270.51229858 76.684036255
          278.02243042 269.20684814 73.886962891 274.73721313 268.15396118 72.321075439
          272.69882202 271.53201294 73.555709839 271.93087769 274.46487427 73.725112915
          275.84802246 273.94024658 76.8802948 312.94744873 242.25279236 139.64831543
          311.80459595 245.29414368 135.5741272 311.06323242 244.81802368 138.75924683
          312.99319458 242.34887695 134.29389954 313.95947266 242.25395203 144.16320801
          314.44244385 239.47975159 142.25749207 310.75454712 245.21372986 142.02568054
          314.21170044 239.86471558 136.31115723 314.90011597 237.30181885 139.68681335
          282.23861694 243.56370544 99.613685608 279.46157837 241.58381653 101.18952179
          279.60559082 243.1496582 97.473487854 284.76947021 247.37498474 100.54672241
          285.11437988 244.65797424 103.76796722 282.45812988 240.95155334 103.36601257
          280.48855591 246.44895935 97.335571289 283.57662964 245.94032288 97.957901001
          251.36273193 268.27435303 82.19569397 251.41925049 268.31271362 77.583244324
          250.50587463 266.23086548 79.86151886 250.25712585 266.55206299 86.910331726
          252.27632141 269.12200928 85.52141571 249.1509552 264.28134155 84.397361755
          254.41651917 271.66513062 84.271110535 253.66899109 271.9362793 79.339599609
          269.39205933 250.08705139 76.6875 267.53012085 251.50054932 79.979858398
          267.24154663 253.79634094 75.354888916 268.84954834 251.51780701 73.981170654
          271.64624023 252.80537415 73.550872803 271.66833496 249.16218567 78.750244141
          273.84506226 250.55108643 75.639450073 283.99746704 264.71853638 90.052062988
          283.6960144 268.69830322 89.069900513 283.86590576 268.17160034 93.143768311
          283.98297119 260.14614868 90.485664368 284.06555176 261.9029541 86.959060669
          283.18881226 265.51153564 85.03528595 284.00354004 263.38580322 94.124526978
          306.08401489 214.99282837 156.89923096 302.34567261 212.18617249 155.75854492
          305.09762573 212.91975403 152.93110657 302.77877808 215.09565735 157.72843933
          307.18450928 218.76727295 158.1756134 303.4987793 216.93017578 160.51029968
          307.6991272 217.45478821 154.92048645 308.0526123 214.53230286 153.2555542
          268.78521729 275.04840088 97.022262573 272.03970337 274.80657959 99.453987122
          273.2019043 275.08178711 96.498649597 269.10552979 274.32046509 100.77062988
          263.65951538 274.9067688 96.889755249 266.15896606 274.90594482 99.521408081
          267.55471802 276.03878784 93.486366272 271.38851929 275.79281616 93.9741745
          255.89727783 269.4593811 106.3415451 254.05395508 269.23403931 102.42397308
          253.62870789 265.8274231 104.56106567 259.40585327 269.06835938 109.51454163
          258.2487793 272.47045898 105.87429047 256.30679321 267.78939819 109.23339844
          256.92169189 272.08172607 102.28176117 254.35447693 264.9420166 108.27226257
          300.07336426 229.20860291 166.41456604 295.85424805 227.07861328 166.36178589
          301.27536011 226.14949036 166.59335327 297.57693481 232.37428284 165.60047913
          301.95986938 231.34362793 163.36279297 303.3180542 228.60227966 163.34100342
          296.36990356 232.37184143 115.58296967 300.80761719 232.48739624 113.84753418
          301.25305176 231.90106201 118.55665588 297.34085083 230.2288208 119.18266296
          293.0519104 231.75582886 118.41505432 292.19119263 232.53649902 113.48838806
          293.82785034 235.01557922 112.51435852 297.67605591 233.17427063 112.43110657
          261.3522644 252.15914917 121.38687897 259.64572144 253.92445374 118.34822083
          262.43380737 251.28857422 117.61251831 261.55947876 251.39796448 124.50899506
          259.19384766 254.52799988 121.46357727 263.81430054 249.54129028 119.78263092
          264.87713623 248.49282837 122.51012421 315.15826416 231.33088684 150.86923218
          315.23321533 234.18751526 147.18217468 315.21969604 234.80111694 150.60801697
          314.20721436 230.4631958 147.22695923 313.14175415 234.19248962 154.72801208
          313.70852661 231.12120056 154.56756592 314.21206665 227.98616028 151.59919739
          250.43304443 265.32220459 93.484672546 252.38206482 268.75271606 95.177070618
          252.19560242 268.30407715 91.985702515 251.40628052 265.59564209 90.085296631
          252.4030304 262.34710693 90.238182068 253.14082336 262.85586548 93.803886414
          253.74949646 263.79122925 97.059829712 251.93434143 266.53503418 97.479675293
          271.75454712 265.30810547 118.75453186 271.73260498 267.06637573 114.8181076
          269.26245117 267.07369995 117.50096893 269.35043335 264.69589233 120.7768631
          275.63793945 265.51104736 118.04374695 274.96939087 263.61245728 121.44488525
          272.03442383 262.72647095 123.40084076 279.90118408 229.20861816 132.10595703
          281.79598999 226.29943848 134.06037903 279.96975708 227.02577209 136.50662231
          282.1809082 229.01571655 129.13427734 279.24942017 231.96585083 129.61390686
          278.06234741 230.13200378 134.61122131 277.19973755 231.7514801 132.02452087
          281.05145264 251.93936157 91.360641479 278.24105835 248.57295227 92.465332031
          279.80413818 250.64259338 88.435501099 281.53659058 252.72607422 94.639259338
          280.10128784 249.64389038 94.841835022 283.06997681 255.87472534 91.354423523
          281.82763672 253.95095825 87.834564209 265.20773315 276.83218384 85.010765076
          268.63061523 276.02203369 85.856117249 268.24612427 277.37457275 81.244392395
          263.00827026 276.55316162 88.086227417 266.51730347 276.20373535 88.785438538
          264.30944824 277.31832886 82.156669617 261.50640869 276.20654297 82.462013245
          269.1434021 244.24110413 120.68360138 266.56600952 247.09498596 119.98021698
          268.35699463 246.12193298 117.36447144 267.31680298 246.05526733 123.03826141
          271.86578369 242.4697876 119.61346436 271.51766968 241.49221802 123.97467804
          269.10653687 243.74372864 124.94242859 270.70721436 244.13635254 116.5699234
          271.76409912 235.2558136 153.68235779 271.10076904 238.37988281 151.75180054
          270.78866577 234.97363281 150.84825134 272.83911133 231.07261658 153.04862976
          274.88473511 234.68058777 155.26411438 274.33270264 239.78544617 154.48179626
          301.47390747 221.81945801 136.87194824 298.40625 219.5370636 137.24221802
          298.55627441 222.03561401 133.35322571 303.20309448 224.34867859 134.57472229
          302.32003784 221.20436096 141.12240601 304.46853638 223.18225098 138.18383789
          283.70571899 217.59117126 158.63566589 280.78637695 217.47151184 156.57571411
          283.42861938 214.48803711 155.86601257 283.89630127 220.235672 162.16986084
          280.77404785 219.57823181 160.06861877 286.04034424 215.32035828 157.80911255
          285.99472046 217.11238098 161.63192749 311.08740234 221.3135376 149.57818604
          308.23553467 217.96542358 150.36729431 307.47549438 219.51914978 147.61730957
          310.72296143 223.97103882 147.21832275 313.91851807 224.67152405 150.35760498
          312.30325317 222.31764221 153.37245178 311.66064453 219.36602783 153.97257996