<?xml version="1.0"?>
<VTKFile type="PolyData" version="0.1" byte_order="LittleEndian" header_type="UInt32" compressor="vtkZLibDataCompressor">
  <PolyData>
    <Piece NumberOfPoints="957" NumberOfVerts="0" NumberOfLines="0" NumberOfStrips="0" NumberOfPolys="1910">
      <PointData>
      </PointData>
      <CellData Scalars="Materials">
        <DataArray type="Int32" Name="Materials" format="ascii" RangeMin="2" RangeMax="2">
          2 2 2 2 2 2
          2 2 2 2 2 2
          2 2 2 2 2 2
          2 2 2 2 2 2
          2 2 2 2 2 2
          2 2 2 2 2 2
          2 2 2 2 2 2
          2 2 2 2 2 2
          2 2 2 2 2 2
          2 2 2 2 2 2
          2 2 2 2 2 2
          2 2 2 2 2 2
          2 2 2 2 2 2
          2 2 2 2 2 2
          2 2 2 2 2 2
          2 2 2 2 2 2
          2 2 2 2 2 2
          2 2 2 2 2 2
          2 2 2 2 2 2
          2 2 2 2 2 2
          2 2 2 2 2 2
          2 2 2 2 2 2
          2 2 2 2 2 2
          2 2 2 2 2 2
          2 2 2 2 2 2
          2 2 2 2 2 2
          2 2 2 2 2 2
          2 2 2 2 2 2
          2 2 2 2 2 2
          2 2 2 2 2 2
          2 2 2 2 2 2
          2 2 2 2 2 2
          2 2 2 2 2 2
          2 2 2 2 2 2
          2 2 2 2 2 2
          2 2 2 2 2 2
          2 2 2 2 2 2
          2 2 2 2 2 2
          2 2 2 2 2 2
          2 2 2 2 2 2
          2 2 2 2 2 2
          2 2 2 2 2 2
          2 2 2 2 2 2
          2 2 2 2 2 2
          2 2 2 2 2 2
          2 2 2 2 2 2
          2 2 2 2 2 2
          2 2 2 2 2 2
          2 2 2 2 2 2
          2 2 2 2 2 2
          2 2 2 2 2 2
          2 2 2 2 2 2
          2 2 2 2 2 2
          2 2 2 2 2 2
          2 2 2 2 2 2
          2 2 2 2 2 2
          2 2 2 2 2 2
          2 2 2 2 2 2
          2 2 2 2 2 2
          2 2 2 2 2 2
          2 2 2 2 2 2
          2 2 2 2 2 2
          2 2 2 2 2 2
          2 2 2 2 2 2
          2 2 2 2 2 2
          2 2 2 2 2 2
          2 2 2 2 2 2
          2 2 2 2 2 2
          2 2 2 2 2 2
          2 2 2 2 2 2
          2 2 2 2 2 2
          2 2 2 2 2 2
          2 2 2 2 2 2
          2 2 2 2 2 2
          2 2 2 2 2 2
          2 2 2 2 2 2
          2 2 2 2 2 2
          2 2 2 2 2 2
          2 2 2 2 2 2
          2 2 2 2 2 2
          2 2 2 2 2 2
          2 2 2 2 2 2
          2 2 2 2 2 2
          2 2 2 2 2 2
          2 2 2 2 2 2
          2 2 2 2 2 2
          2 2 2 2 2 2
          2 2 2 2 2 2
          2 2 2 2 2 2
          2 2 2 2 2 2
          2 2 2 2 2 2
          2 2 2 2 2 2
          2 2 2 2 2 2
          2 2 2 2 2 2
          2 2 2 2 2 2
          2 2 2 2 2 2
          2 2 2 2 2 2
          2 2 2 2 2 2
          2 2 2 2 2 2
          2 2 2 2 2 2
          2 2 2 2 2 2
          2 2 2 2 2 2
          2 2 2 2 2 2
          2 2 2 2 2 2
          2 2 2 2 2 2
          2 2 2 2 2 2
          2 2 2 2 2 2
          2 2 2 2 2 2
          2 2 2 2 2 2
          2 2 2 2 2 2
          2 2 2 2 2 2
          2 2 2 2 2 2
          2 2 2 2 2 2
          2 2 2 2 2 2
          2 2 2 2 2 2
          2 2 2 2 2 2
          2 2 2 2 2 2
          2 2 2 2 2 2
          2 2 2 2 2 2
          2 2 2 2 2 2
          2 2 2 2 2 2
          2 2 2 2 2 2
          2 2 2 2 2 2
          2 2 2 2 2 2
          2 2 2 2 2 2
          2 2 2 2 2 2
          2 2 2 2 2 2
          2 2 2 2 2 2
          2 2 2 2 2 2
          2 2 2 2 2 2
          2 2 2 2 2 2
          2 2 2 2 2 2
          2 2 2 2 2 2
          2 2 2 2 2 2
          2 2 2 2 2 2
          2 2 2 2 2 2
          2 2 2 2 2 2
          2 2 2 2 2 2
          2 2 2 2 2 2
          2 2 2 2 2 2
          2 2 2 2 2 2
          2 2 2 2 2 2
          2 2 2 2 2 2
          2 2 2 2 2 2
          2 2 2 2 2 2
          2 2 2 2 2 2
          2 2 2 2 2 2
          2 2 2 2 2 2
          2 2 2 2 2 2
          2 2 2 2 2 2
          2 2 2 2 2 2
          2 2 2 2 2 2
          2 2 2 2 2 2
          2 2 2 2 2 2
          2 2 2 2 2 2
          2 2 2 2 2 2
          2 2 2 2 2 2
          2 2 2 2 2 2
          2 2 2 2 2 2
          2 2 2 2 2 2
          2 2 2 2 2 2
          2 2 2 2 2 2
          2 2 2 2 2 2
          2 2 2 2 2 2
          2 2 2 2 2 2
          2 2 2 2 2 2
          2 2 2 2 2 2
          2 2 2 2 2 2
          2 2 2 2 2 2
          2 2 2 2 2 2
          2 2 2 2 2 2
          2 2 2 2 2 2
          2 2 2 2 2 2
          2 2 2 2 2 2
          2 2 2 2 2 2
          2 2 2 2 2 2
          2 2 2 2 2 2
          2 2 2 2 2 2
          2 2 2 2 2 2
          2 2 2 2 2 2
          2 2 2 2 2 2
          2 2 2 2 2 2
          2 2 2 2 2 2
          2 2 2 2 2 2
          2 2 2 2 2 2
          2 2 2 2 2 2
          2 2 2 2 2 2
          2 2 2 2 2 2
          2 2 2 2 2 2
          2 2 2 2 2 2
          2 2 2 2 2 2
          2 2 2 2 2 2
          2 2 2 2 2 2
          2 2 2 2 2 2
          2 2 2 2 2 2
          2 2 2 2 2 2
          2 2 2 2 2 2
          2 2 2 2 2 2
          2 2 2 2 2 2
          2 2 2 2 2 2
          2 2 2 2 2 2
          2 2 2 2 2 2
          2 2 2 2 2 2
          2 2 2 2 2 2
          2 2 2 2 2 2
          2 2 2 2 2 2
          2 2 2 2 2 2
          2 2 2 2 2 2
          2 2 2 2 2 2
          2 2 2 2 2 2
          2 2 2 2 2 2
          2 2 2 2 2 2
          2 2 2 2 2 2
          2 2 2 2 2 2
          2 2 2 2 2 2
          2 2 2 2 2 2
          2 2 2 2 2 2
          2 2 2 2 2 2
          2 2 2 2 2 2
          2 2 2 2 2 2
          2 2 2 2 2 2
          2 2 2 2 2 2
          2 2 2 2 2 2
          2 2 2 2 2 2
          2 2 2 2 2 2
          2 2 2 2 2 2
          2 2 2 2 2 2
          2 2 2 2 2 2
          2 2 2 2 2 2
          2 2 2 2 2 2
          2 2 2 2 2 2
          2 2 2 2 2 2
          2 2 2 2 2 2
          2 2 2 2 2 2
          2 2 2 2 2 2
          2 2 2 2 2 2
          2 2 2 2 2 2
          2 2 2 2 2 2
          2 2 2 2 2 2
          2 2 2 2 2 2
          2 2 2 2 2 2
          2 2 2 2 2 2
          2 2 2 2 2 2
          2 2 2 2 2 2
          2 2 2 2 2 2
          2 2 2 2 2 2
          2 2 2 2 2 2
          2 2 2 2 2 2
          2 2 2 2 2 2
          2 2 2 2 2 2
          2 2 2 2 2 2
          2 2 2 2 2 2
          2 2 2 2 2 2
          2 2 2 2 2 2
          2 2 2 2 2 2
          2 2 2 2 2 2
          2 2 2 2 2 2
          2 2 2 2 2 2
          2 2 2 2 2 2
          2 2 2 2 2 2
          2 2 2 2 2 2
          2 2 2 2 2 2
          2 2 2 2 2 2
          2 2 2 2 2 2
          2 2 2 2 2 2
          2 2 2 2 2 2
          2 2 2 2 2 2
          2 2 2 2 2 2
          2 2 2 2 2 2
          2 2 2 2 2 2
          2 2 2 2 2 2
          2 2 2 2 2 2
          2 2 2 2 2 2
          2 2 2 2 2 2
          2 2 2 2 2 2
          2 2 2 2 2 2
          2 2 2 2 2 2
          2 2 2 2 2 2
          2 2 2 2 2 2
          2 2 2 2 2 2
          2 2 2 2 2 2
          2 2 2 2 2 2
          2 2 2 2 2 2
          2 2 2 2 2 2
          2 2 2 2 2 2
          2 2 2 2 2 2
          2 2 2 2 2 2
          2 2 2 2 2 2
          2 2 2 2 2 2
          2 2 2 2 2 2
          2 2 2 2 2 2
          2 2 2 2 2 2
          2 2 2 2 2 2
          2 2 2 2 2 2
          2 2 2 2 2 2
          2 2 2 2 2 2
          2 2 2 2 2 2
          2 2 2 2 2 2
          2 2 2 2 2 2
          2 2 2 2 2 2
          2 2 2 2 2 2
          2 2 2 2 2 2
          2 2 2 2 2 2
          2 2 2 2 2 2
          2 2 2 2 2 2
          2 2 2 2 2 2
          2 2 2 2 2 2
          2 2 2 2 2 2
          2 2 2 2 2 2
          2 2 2 2 2 2
          2 2 2 2 2 2
          2 2 2 2 2 2
          2 2 2 2 2 2
          2 2 2 2 2 2
          2 2 2 2 2 2
          2 2 2 2 2 2
          2 2 2 2 2 2
          2 2 2 2 2 2
          2 2
        </DataArray>
      </CellData>
      <Points>
        <DataArray type="Float32" Name="Points" NumberOfComponents="3" format="ascii" RangeMin="369.15461772" RangeMax="422.55691145">
          286.93447876 230.33605957 123.04891968 287.14071655 232.05606079 119.9311676
          290.25228882 229.82502747 120.70639038 289.16479492 227.15364075 124.54548645
          284.45977783 229.49085999 124.66524506 283.58374023 232.07008362 123.24002075
          294.18414307 215.5665741 161.62594604 291.15158081 215.39390564 161.55091858
          292.15905762 214.33135986 158.88859558 296.21386719 214.4884491 158.97926331
          296.3684082 216.90083313 163.57530212 292.38198853 218.81498718 164.48251343
          285.0171814 244.76570129 125.99899292 285.12942505 245.88291931 128.51803589
          286.54702759 244.81388855 126.56194305 282.99105835 244.33222961 128.55661011
          285.68603516 244.99620056 125.18896484 283.81594849 245.49537659 124.50080872
          267.77426147 259.56323242 128.07678223 272.3664856 259.41012573 128.20292664
          270.80377197 263.34161377 127.41653442 269.94284058 257.66802979 130.57533264
          266.66363525 257.58596802 130.4500885 267.24636841 262.95910645 126.99635315
          264.65093994 259.03445435 127.55917358 288.71899414 245.6701355 124.34502411
          285.82913208 244.67373657 121.50000763 288.57415771 222.29232788 135.32414246
          290.46865845 219.12327576 137.69793701 286.11639404 221.8664093 137.57162476
          292.82797241 221.1819458 135.48388672 290.24368286 223.42149353 131.74243164
          287.40274048 224.39405823 130.43615723 284.73001099 223.47846985 134.9730835
          280.54885864 242.00234985 129.65379333 282.07928467 244.60913086 131.8452301
          285.90542603 245.79866028 131.76705933 280.15820313 247.01925659 127.52266693
          280.40579224 242.08483887 125.26942444 276.40795898 225.83668518 157.37475586
          277.32540894 229.14233398 157.57788086 274.02694702 227.66546631 154.09384155
          279.21252441 229.04293823 160.44827271 280.98751831 226.175354 160.52589417
          274.81082153 223.72723389 152.79890442 276.87240601 222.93211365 155.49876404
          279.04000854 223.51509094 159.81184387 284.68411255 237.53808594 115.56221771
          280.94152832 235.91288757 116.83084869 279.54244995 239.05763245 115.04360199
          284.96762085 233.80310059 117.70702362 287.38485718 234.58662415 112.9299469
          281.94604492 241.18893433 115.4001236 285.8548584 241.23739624 116.30973053
          288.81744385 238.74053955 115.53314209 286.80801392 237.88098145 113.00059509
          278.15567017 237.93319702 124.77870178 278.10794067 239.42973328 129.51220703
          279.1322937 237.1439209 120.85062408 279.78942871 234.76908875 123.42801666
          276.10794067 238.03388977 122.08460999 275.61886597 240.46638489 126.55579376
          278.85769653 234.50457764 126.85971069 277.24990845 236.80908203 128.13096619
          297.27383423 225.21313477 127.1905899 298.62243652 223.10211182 129.86218262
          293.77810669 223.49258423 128.23756409 301.66137695 227.25808716 127.59384918
          298.22714233 228.77877808 124.2181778 293.08499146 225.83320618 125.0254364
          296.17047119 226.35513306 124.42892456 309.85443115 227.83859253 140.95918274
          306.40655518 224.21200562 140.97496033 308.8732605 227.73864746 137.57904053
          312.50579834 231.17634583 139.11790466 312.69064331 229.47955322 143.4894104
          310.89923096 226.59524536 143.90737915 302.78253174 251.58468628 141.89414978
          299.4359436 251.57926941 141.1973877 301.40826416 251.81227112 145.52218628
          300.9510498 250.13101196 137.07466125 304.61434937 249.4143219 138.59901428
          304.98083496 251.28668213 144.01281738 306.45178223 249.04249573 142.5262146
          280.80484009 257.52685547 125.43812561 278.53411865 261.17218018 124.15623474
          276.956604 258.91299438 127.56825256 278.57858276 253.95413208 128.24942017
          281.70803833 254.09953308 126.35509491 283.80291748 255.02163696 122.00141144
          281.50613403 259.57546997 121.35412598 294.08602905 248.16847229 133.74139404
          297.08685303 249.26246643 135.39115906 296.1427002 248.02848816 131.40545654
          293.19326782 247.56010437 130.22601318 291.0652771 247.86753845 134.95809937
          293.29833984 250.01263428 137.48240662 282.21051025 250.8704834 124.70470428
          280.17724609 250.8838501 127.5840683 283.19088745 247.45181274 124.54141998
          283.84353638 251.7073822 121.94390106 282.50869751 248.98866272 127.08161163
          289.71295166 246.5151062 129.66011047 288.41934204 246.24856567 133.921875
          287.58297729 245.50604248 127.61427307 291.58004761 246.91537476 125.13824463
          293.38928223 248.12086487 127.25230408 283.87350464 257.34036255 101.09254456
          283.84182739 260.10424805 104.96178436 285.11553955 256.17736816 104.85534668
          282.98730469 254.89434814 96.835258484 283.8911438 259.40414429 97.996582031
          285.39193726 252.95953369 100.51076508 283.91854858 262.26507568 100.37541199
          286.19580078 253.12037659 103.81550598 283.83602905 247.26135254 121.34128571
          285.6640625 250.6078949 112.12494659 286.3380127 250.3996582 108.99050903
          286.23608398 253.62945557 110.91873932 283.87780762 245.51829529 113.10352325
          284.40997314 245.31448364 110.02819061 284.89825439 251.5973053 114.97647858
          285.02276611 248.53878784 115.54797363 286.09768677 247.27726746 108.27274323
          301.37548828 243.44024658 116.65396118 299.8505249 239.50906372 115.54750061
          297.99697876 243.36839294 115.86619568 297.67672729 245.61964417 118.48713684
          301.27694702 246.515625 118.74246979 303.98925781 242.56344604 118.02658081
          303.54946899 240.94412231 115.44416046 293.62863159 245.89923096 120.79493713
          298.56668091 248.88948059 121.69763184 295.47653198 247.98773193 124.28553772
          293.65988159 242.97715759 118.14442444 289.75765991 244.91244507 120.55518341
          270.16107178 239.13148499 143.38415527 272.19802856 241.53103638 142.29400635
          271.98220825 237.58961487 139.81948853 272.02618408 235.42292786 142.26890564
          270.1651001 236.15550232 145.42797852 271.45892334 242.65306091 146.77500916
          269.82516479 240.12495422 147.09300232 283.94921875 244.01545715 118.37501526
          284.71020508 246.99078369 118.18852997 287.06854248 243.31234741 118.84392548
          283.92016602 247.26353455 140.28224182 284.24203491 248.76031494 143.50117493
          287.54553223 249.18678284 141.491745 286.06829834 246.75769043 137.2795105
          280.06265259 245.97880554 141.86235046 280.45968628 245.09823608 137.67707825
          283.94631958 249.77487183 119.25241852 283.97543335 253.61120605 117.1648941
          265.08966064 248.52374268 110.7423172 268.15692139 246.51660156 111.31277466
          267.00445557 247.98474121 113.97669983 264.04736328 250.41104126 114.08892059
          264.234375 248.05192566 107.17297363 267.5557251 246.94657898 108.14515686
          262.92544556 250.05023193 109.14079285 274.82714844 242.13684082 111.35734558
          276.44976807 239.21786499 113.53343201 272.94894409 241.8895874 116.43174744
          277.37261963 240.15658569 109.69991302 272.21316528 244.44984436 111.45584106
          274.56951904 242.86636353 107.02733612 301.72000122 249.23501587 126.60456848
          301.90182495 249.25283813 123.00765228 298.36651611 249.24911499 125.72594452
          304.69042969 248.06048584 124.05758667 301.37164307 248.89355469 130.05203247
          304.71398926 247.92500305 129.93580627 271.98806763 248.6257019 130.51998901
          269.24398804 244.42572021 130.58187866 273.65032959 244.14300537 130.51000977
          275.07287598 251.81359863 130.63479614 271.72625732 251.96923828 130.47351074
          275.58190918 247.40893555 130.45695496 267.2477417 249.11088562 130.58802795
          289.82269287 242.5083313 117.35648346 292.4211731 239.20649719 115.36531067
          284.13760376 245.1499176 134.52737427 281.06677246 244.46957397 134.73707581
          295.69436646 239.37338257 161.12785339 298.48257446 238.49316406 163.54722595
          300.61279297 238.90151978 160.43312073 294.24819946 235.28033447 163.56517029
          297.98925781 242.51060486 158.97589111 295.16738892 242.14794922 160.02433777
          290.34576416 239.73014832 160.62969971 292.73880005 238.65934753 163.25956726
          267.91741943 270.18276978 108.90117645 265.73522949 271.35678101 105.8615799
          263.79653931 269.35122681 110.55210114 269.82839966 271.82116699 103.90587616
          269.09094238 268.95916748 111.92755127 272.46826172 269.43945313 111.29785919
          272.08416748 270.30453491 106.53543091 260.32632446 257.86901855 82.874069214
          258.60418701 259.23681641 80.626098633 262.30612183 258.04415894 78.916152954
          263.02798462 254.89009094 86.591217041 260.39334106 258.77096558 87.582206726
          263.28771973 255.26043701 82.665206909 257.54315186 258.53286743 85.42099762
          276.26345825 275.09494019 87.1095047 279.8946228 273.86541748 84.238800049
          275.55383301 274.00735474 83.107688904 280.34890747 273.6060791 88.542007446
          272.51696777 275.93374634 86.865951538 273.69744873 275.12854004 91.154251099
          277.09991455 274.00149536 90.903244019 280.86138916 255.93286133 80.610694885
          279.09069824 256.45449829 76.582954407 281.59738159 258.98129272 80.159202576
          280.35488892 253.39619446 82.543441772 278.66519165 254.34501648 78.933677673
          281.83721924 255.7481842 84.381851196 257.11773682 274.90737915 92.782279968
          257.6434021 273.66217041 97.499710083 260.76931763 275.66717529 94.235351563
          260.57556152 276.76879883 90.725578308 256.47476196 273.26205444 88.74559021
          255.7684021 272.39031982 91.618293762 255.09013367 272.21463013 96.410392761
          310.48181152 226.46647644 160.53794861 308.53817749 229.13201904 161.55171204
          307.17041016 225.54301453 162.88751221 310.12844849 222.96528625 160.46507263
          311.51409912 224.22270203 157.48391724 312.50671387 228.97554016 157.70690918
          311.72399902 231.1884613 160.1625061 262.04263306 274.90615845 74.255821228
          257.82281494 273.71359253 76.795425415 261.00393677 275.17468262 78.668212891
          259.68637085 271.02514648 73.573806763 264.19345093 275.41906738 76.437713623
          264.62911987 273.14901733 73.294670105 269.33746338 260.0463562 67.652832031
          270.47937012 262.98464966 69.363388062 270.96240234 259.87991333 70.239326477
          269.51367188 257.19073486 70.073196411 265.1494751 256.82296753 67.456054688
          265.73812866 261.77017212 67.375915527 267.92687988 265.11065674 67.607879639
          270.45480347 248.29171753 93.839355469 273.47753906 246.96434021 97.423721313
          268.58139038 249.478302 96.357826233 274.20245361 246.28616333 94.217788696
          267.89993286 250.35714722 93.134132385 270.88122559 247.11381531 91.004219055
          283.36529541 212.86117554 148.63259888 286.82446289 213.57102966 148.47390747
          285.50762939 211.11280823 151.41546631 282.60348511 213.23326111 152.21810913
          283.8581543 215.84448242 147.907547 280.95367432 214.64445496 149.828125
          310.6338501 241.90301514 153.44017029 307.92861938 241.72038269 154.85507202
          311.71035767 239.04182434 153.97984314 310.10137939 243.38545227 150.77067566
          313.05978394 239.76647949 150.29512024 258.51202393 259.48348999 99.633682251
          256.84060669 262.4362793 98.928039551 259.05636597 260.91867065 96.6693573
          260.38580322 258.08334351 97.204292297 260.63476563 256.98184204 100.1736908
          259.2605896 258.55029297 102.60477448 256.42160034 261.42150879 102.49365234
          279.57592773 242.44487 157.03570557 276.89877319 241.97148132 154.65913391
          276.59133911 240.17250061 157.49824524 279.44998169 239.03355408 157.91184998
          280.27511597 245.20697021 154.47357178 282.19674683 240.47735596 158.01620483
          283.92279053 244.77095032 155.56306458 299.66485596 215.51950073 145.83578491
          296.6321106 214.46208191 145.41603088 298.45849609 216.88015747 143.3664856
          302.53268433 213.06448364 148.45576477 297.57492065 213.12773132 148.21287537
          303.75488281 217.26557922 146.11909485 302.23397827 218.00245667 142.88363647
          311.00247192 236.13356018 127.2443161 309.65811157 235.68780518 124.21073914
          311.28353882 238.69035339 124.67074585 309.230896 233.73908997 128.46664429
          311.9793396 238.56221008 129.62599182 313.2086792 236.2255249 132.30039978
          310.79162598 233.26829529 131.36985779 256.44439697 261.14083862 115.40122223
          258.09768677 261.35968018 118.98386383 259.64535522 264.67175293 117.48336792
          257.41894531 264.63345337 114.47561646 255.85928345 262.19299316 112.16159821
          256.98834229 258.50033569 113.59495544 256.72549438 258.71212769 117.92343903
          287.85894775 228.02584839 166.47776794 286.66555786 230.26185608 164.21447754
          286.1463623 224.64346313 164.07064819 289.82815552 223.75163269 166.48245239
          291.82376099 227.26190186 166.5993042 289.44696045 232.05233765 166.32173157
          280.07250977 271.49975586 100.80564117 276.68008423 270.91885376 104.09243011
          280.73257446 269.32437134 105.43587494 282.94494629 268.01675415 101.38952637
          282.00668335 270.29980469 96.832221985 278.62878418 272.87640381 95.738174438
          275.9972229 273.94088745 99.059593201 277.35525513 272.83776855 101.68300629
          277.39071655 226.75596619 143.1027832 279.06314087 224.40034485 144.71516418
          275.84945679 224.41673279 147.48861694 274.16168213 228.973526 145.70652771
          280.53961182 223.74134827 141.82875061 276.83425903 227.88978577 140.30708313
          279.06243896 226.01275635 139.3462677 275.23077393 230.12149048 141.80621338
          255.55227661 262.78274536 70.316978455 257.50012207 260.64334106 67.541030884
          255.24703979 259.45230103 70.524238586 252.41430664 262.2930603 72.28112793
          258.76306152 264.44543457 67.379425049 253.77526855 267.07046509 71.242362976
          256.95861816 265.36968994 69.624305725 281.94949341 264.66119385 113.16085815
          279.06448364 266.49343872 112.64578247 279.12332153 265.13067627 116.21952057
          283.480896 262.79290771 108.96765137 281.86633301 265.15164185 107.54184723
          280.44891357 267.18609619 109.5555954 281.85928345 262.04849243 116.69335938
          284.39300537 260.41653442 113.49497986 292.49691772 249.2900238 151.44612122
          293.08700562 251.28323364 147.05860901 288.4960022 249.13833618 149.79402161
          295.79711914 250.16133118 149.99533081 297.39602661 247.11999512 152.0760498
          288.53762817 246.78956604 153.43286133 292.52938843 246.30636597 154.26768494
          275.7286377 271.28994751 73.462158203 278.56491089 270.51019287 76.68850708
          278.02630615 269.20419312 73.89226532 274.74111938 268.15087891 72.326881409
          272.70294189 271.52966309 73.56124115 271.9352417 274.46298218 73.730430603
          275.85217285 273.93875122 76.884460449 312.94558716 242.25274658 139.6598053
          311.80270386 245.29397583 135.58512878 311.06137085 244.81799316 138.77035522
          312.99133301 242.34864807 134.30522156 313.95761108 242.25402832 144.17481995
          314.44061279 239.47981262 142.26916504 310.75265503 245.21383667 142.03683472
          314.20983887 239.86456299 136.32275391 314.89828491 237.30183411 139.69857788
          282.23901367 243.56188965 99.622200012 279.46182251 241.58232117 101.19837189
          279.60610962 243.14778137 97.481994629 284.76989746 247.37310791 100.55429077
          285.11447144 244.65641785 103.77616119 282.4581604 240.95011902 103.37509918
          280.48922729 246.447052 97.343566895 283.57717896 245.93826294 97.965797424
          251.36720276 268.27365112 82.204193115 251.42393494 268.31140137 77.591934204
          250.51036072 266.22979736 79.870307922 250.26121521 266.55181885 86.918899536
          252.28062439 269.12167358 85.529647827 249.15505981 264.28076172 84.406242371
          254.42094421 271.66470337 84.279006958 253.67372131 271.93533325 79.347808838
          269.39480591 250.08366394 76.695343018 267.53283691 251.49769592 79.987632751
          267.24462891 253.79289246 75.362510681 268.85244751 251.5140686 73.988945007
          271.64923096 252.80151367 73.558479309 271.6708374 249.15898132 78.758155823
          273.84786987 250.54742432 75.647209167 283.99972534 264.71713257 90.056274414
          283.69863892 268.69735718 89.073028564 283.86798096 268.17089844 93.146560669
          283.98498535 260.14434814 90.491241455 284.06799316 261.90093994 86.964370728
          283.19168091 265.50973511 85.039764404 284.00527954 263.38461304 94.128746033
          306.08239746 214.99403381 156.91116333 302.34393311 212.18759155 155.77029419
          305.09588623 212.92108154 152.94287109 302.77713013 215.09695435 157.74034119
          307.18292236 218.76823425 158.18778992 303.4972229 216.93130493 160.52236938
          307.69747925 217.45582581 154.93254089 308.05093384 214.53349304 153.26742554
          268.78796387 275.04910278 97.0260849 272.0418396 274.80734253 99.456581116
          273.20437622 275.08239746 96.501037598 269.10784912 274.32125854 100.77436829
          263.66265869 274.90744019 96.895057678 266.16171265 274.9067688 99.525932312
          267.5579834 276.03930664 93.490646362 271.39147949 275.79342651 93.977111816
          255.90007019 269.4602356 106.34893799 254.05703735 269.23483276 102.43166351
          253.63134766 265.82815552 104.56884766 259.40829468 269.06915283 109.52144623
          258.2517395 272.47137451 105.88115692 256.30923462 267.7902832 109.24071503
          256.92486572 272.08255005 102.28888702 254.35678101 264.94284058 108.27992249
          300.07211304 229.20887756 166.42706299 295.85290527 227.07902527 166.37428284
          301.27407837 226.14985657 166.60588074 297.57565308 232.37452698 165.612854
          301.95846558 231.3440094 163.37519836 303.31665039 228.60275269 163.35342407
          296.36859131 232.37109375 115.59410858 300.80633545 232.48620605 113.85876465
          301.25161743 231.90031433 118.56797028 297.33935547 230.22834778 119.19406128
          293.05053711 231.75553894 118.42621613 292.19003296 232.53572083 113.49926758
          293.82684326 235.01460266 112.52497864 297.67489624 233.17311096 112.44216156
          261.35308838 252.1603241 121.39540863 259.646698 253.92544556 118.3565979
          262.43450928 251.28939819 117.62095642 261.56033325 251.39938354 124.51774597
          259.19491577 254.5291748 121.47211456 263.81488037 249.54225159 119.79130554
          264.87765503 248.49398804 122.51893616 315.15658569 231.33119202 150.88156128
          315.23141479 234.18778992 147.19425964 315.21795654 234.80133057 150.62023926
          314.20544434 230.46359253 147.23918152 313.14013672 234.19276428 154.74032593
          313.7069397 231.12153625 154.57997131 314.21044922 227.98664856 151.61146545
          250.43656921 265.32247925 93.493057251 252.38566589 268.75314331 95.185096741
          252.19940186 268.30432129 91.993789673 251.41003418 265.59564209 90.09362793
          252.40643311 262.34686279 90.24646759 253.14396667 262.855896 93.811935425
          253.75248718 263.79147339 97.067764282 251.93760681 266.53555298 97.487747192
          271.75579834 265.30877686 118.7594986 271.73388672 267.06698608 114.82254791
          269.26400757 267.07440186 117.50623322 269.35180664 264.69662476 120.78263855
          275.63885498 265.51177979 118.04715729 274.9704895 263.61328125 121.44950867
          272.03564453 262.72735596 123.40646362 279.89962769 229.20985413 132.11740112
          281.79421997 226.3006897 134.07203674 279.96801758 227.02720642 136.51826477
          282.17932129 229.01670837 129.1456604 279.24810791 231.96699524 129.62498474
          278.06085205 230.13342285 134.62261963 277.19845581 231.75283813 132.03569031
          281.052948 251.93722534 91.367874146 278.24227905 248.57087708 92.473060608
          279.80581665 250.64022827 88.4429245 281.53787231 252.72419739 94.646240234
          280.10235596 249.64196777 94.849365234 283.07168579 255.87271118 91.361000061
          281.82952881 253.9486084 87.841552734 265.2119751 276.83215332 85.016014099
          268.63458252 276.02200317 85.86038208 268.2505188 277.37423706 81.248855591
          263.01239014 276.55337524 88.091926575 266.52111816 276.20391846 88.79019928
          264.31390381 277.31802368 82.162246704 261.51089478 276.20620728 82.468292236
          269.14352417 244.24205017 120.69268036 266.56634521 247.09588623 119.9890213
          268.35717773 246.12257385 117.37319183 267.31710815 246.056427 123.0472641
          271.86569214 242.4705658 119.62271118 271.51742554 241.49337769 123.98420715
          269.10653687 243.74501038 124.95176697 270.70730591 244.1368866 116.57884216
          271.76290894 235.25727844 153.69413757 271.09976196 238.38134766 151.76327515
          270.78747559 234.97520447 150.85993958 272.837677 231.07415771 153.06066895
          274.88345337 234.68191528 155.27593994 274.33163452 239.78663635 154.49317932
          301.47186279 221.8200531 136.88395691 298.40414429 219.5378418 137.25418091
          298.55419922 222.03611755 133.36526489 303.20108032 224.34902954 134.58673096
          302.31802368 221.20516968 141.13438416 304.46655273 223.18278503 138.19587708
          283.70373535 217.59274292 158.64807129 280.78433228 217.47320557 156.58815002
          283.42648315 214.48980713 155.87826538 283.89453125 220.23693848 162.18235779
          280.77218628 219.57974243 160.08117676 286.03833008 215.32202148 157.82136536
          285.9928894 217.11373901 161.64430237 311.08572388 221.31437683 149.59020996
          308.23382568 217.96647644 150.37924194 307.47372437 219.52008057 147.62927246
          310.72125244 223.97171021 147.2303772 313.91690063 224.67214966 150.36976624
          312.30166626 222.31840515 153.3846283 311.6590271 219.36688232 153.98472595
          310.34225464 216.93687439 152.62609863 293.11373901 209.84939575 152.42514038