# vtk DataFile Version 3.0
vtk output
ASCII
DATASET UNSTRUCTURED_GRID
POINTS 2383 float
142.225 153.852 107.938 66.8324 207.808 125.944 169.781 97.2316 121.339 
54.956 63.8836 124.194 193.149 43.0949 71.8553 268.598 93.1975 128.147 
137.976 89.1523 32.888 235.588 89.3464 0.00901984 211.638 193.969 176.805 
58.8027 147.015 194.421 133.918 141.464 108.19 137.524 91.0226 0.0516934 
126.764 148.911 114.141 120.532 164.757 103.819 98.7798 91.8311 90.4442 
53.3227 85.4699 190.481 166.092 172.172 30.4093 53.9647 78.1633 22.825 
144.064 127.716 120.76 212.824 111.302 156.016 140.572 30.7806 130.317 
172.661 157.467 157.731 158.687 203.392 110.31 5.80551 143.807 6.03597 
135.766 101.083 193.383 134.164 184.765 150.105 98.9834 119.838 122.471 
272.688 136.581 193.985 84.6429 139.247 62.6444 185.622 144.455 116.634 
169.084 206.145 193.519 127.643 169.13 130.428 28.007 136.466 141.967 
176.85 252.794 95.3125 133.164 64.0768 147.487 87.8601 146.887 101.168 
133.714 146.408 134.868 149.348 132.541 104.847 141.272 134.654 112.596 
123.062 115.801 133.615 228.871 228.066 0.00686016 61.4578 79.9527 194.426 
176.959 124.777 0.0530516 30.4732 199.696 51.2289 117.942 253.943 131.643 
157.613 204.572 204.782 97.6217 189.333 -0.049597 25.4996 149.564 0.0165324 
161.171 256.751 174.265 16.6699 140.288 72.0091 246.192 232.424 121.004 
27.4135 203.353 189.904 215.212 188.265 82.5924 153.825 155.773 122.091 
50.9486 228.743 0.0996688 272.812 123.001 55.6417 239.175 163.868 7.052 
129.787 46.895 50.1007 143.868 148.153 160.032 222.663 145.125 187.973 
281.447 198.656 12.9109 184.976 45.0876 4.89537 87.7092 123.524 8.82046 
228.312 248.563 59.8613 24.0075 163.067 202.551 197.879 96.6 176.687 
30.3455 176.521 118.74 247.662 75.2364 76.3714 223.295 61.2917 30.4804 
280.03 129.678 -0.0332881 234.335 57.2832 152.386 28.8138 125.628 195.654 
169.839 220.566 0.0423831 126.236 201.224 16.9249 218.567 250.957 169.193 
59.032 98.5726 82.1037 54.9933 112.032 67.6396 134.262 158.152 204.718 
94.9341 196.811 171.727 82.3141 230.373 159.566 58.758 239.228 82.6761 
177.111 249.41 40.5225 262.633 108.383 176.126 9.32996 196.983 5.06773 
97.5937 50.3132 14.9654 255.28 190.667 129.515 55.8721 125.192 161.338 
184.702 113.948 204.772 108.669 61.3029 96.8994 290.369 162.485 27.6316 
93.7023 82.7114 173.725 140.429 67.5549 204.784 54.8915 164.793 158.656 
184.321 71.4693 165.948 55.665 202.099 204.767 193.98 238.56 204.749 
142.917 81.8987 153.761 131.59 250.034 78.0923 238.51 223.865 204.799 
198.327 216.225 137.738 93.4152 123.013 199.231 28.7708 115.913 35.4675 
45.5785 243.444 189.9 140.265 68.1385 96.0681 34.708 146.017 112.897 
184.716 164.33 204.713 105.667 64.9018 84.1736 84.7364 62.9236 51.3849 
115.07 260.888 181.211 88.7153 53.4254 192.146 289.841 157.289 82.2669 
224.106 127.048 0.0765005 227.282 62.9381 63.857 85.0514 231.142 174.776 
18.6583 173.505 164.012 255.595 181.875 204.717 150.23 222.632 35.0279 
70.8343 159.921 23.1905 199.568 176.818 0.0531069 175.867 190.383 70.417 
153.628 220.517 123.274 212.112 252.718 188.268 255.058 212.084 193.25 
48.19 109.344 113.479 185.874 253.938 136.461 276.196 200.395 113.664 
43.6275 166.443 9.97767 248.106 222.084 0.0493272 263.651 147.53 159.612 
258.248 236.26 28.8953 132.564 163.207 3.70316 228.234 54.0743 108.588 
146.486 255.051 9.02345 28.1774 213.366 142.641 174.969 82.8844 0.033162 
258.255 88.5303 36.4748 172.303 199.537 164.01 52.962 192.715 0.0918963 
65.5818 240.189 93.2093 55.8652 104.68 204.701 74.4553 245.364 120.181 
58.8162 229.236 40.9078 133.172 207.009 0.0698357 62.6283 115.237 99.7296 
113.937 192.729 204.749 113.277 76.9739 124.168 48.0495 115.02 0.0423536 
69.021 106.484 49.2424 215.742 249.204 101.808 109.662 213.648 132.524 
199.965 152.516 78.2023 282.413 117.934 96.374 113.439 190.561 35.8917 
35.5602 211.335 97.5259 157.85 134.905 115.188 170.916 107.86 167.438 
51.6095 88.6836 54.9742 96.119 165.914 188.508 85.6094 86.3597 0.0874202 
171.096 48.7789 42.6766 53.5271 172.4 76.406 266.174 90.9647 5.53054 
14.037 148.853 106.166 258.608 227.446 79.4375 104.834 151.5 114.057 
139.461 241.872 204.811 225.765 176.907 204.748 79.2512 75.5349 92.9407 
220.627 155.887 169.875 111.73 128.257 79.1838 32.0324 144.693 175.301 
225.329 153.104 105.556 273.265 172.512 0.0198441 212.281 54.5899 182.681 
49.351 152.852 65.1876 16.7892 173.84 79.3296 118.443 146.605 90.3254 
143.91 250.12 35.5768 106.913 133.115 106.243 95.4115 252.291 83.4679 
285.242 175.141 171.319 286.427 133.005 136.569 64.5651 125.201 136.585 
41.9835 172.554 101.812 105.8 156.345 35.7334 151.852 241.53 120.246 
160.518 169.654 99.6099 243.056 197.074 0.0888314 23.5391 224.918 20.9327 
152.257 176.918 176.814 245.452 178.703 105.988 183.554 98.8651 143.831 
70.1539 54.4872 169.929 222.072 58.4692 2.05789 168.064 150.001 0.0992776 
154.604 132.541 188.015 118.581 252.238 23.6432 213.691 246.427 29.294 
164.62 35.279 149.413 249.145 232.81 163.909 208.129 219.756 137.265 
251.611 127.427 204.755 93.8027 113.149 28.6491 195.556 201.283 204.738 
90.3326 234.194 164.678 100.489 65.8311 144.224 249.639 73.815 183.574 
23.1018 106.675 167.462 203.997 44.7394 155.941 74.3481 251.637 14.7762 
131.472 220.998 174.342 2.09717 164.139 11.622 196.77 131.829 178.424 
98.2892 175.487 57.4987 40.56 174.609 184.788 158.343 64.1493 127.237 
39.2339 137.306 204.741 199.942 71.4307 127.755 51.014 121.395 67.23 
79.3159 257.912 189.542 209.526 185.815 127.775 46.991 236.108 160.526 
196.508 251.062 66.5891 100.475 232.896 170.08 205.155 180.538 112.568 
250.917 74.0213 104.856 238.897 239.629 154.096 258.418 182.818 168.908 
259.833 149.076 124.951 178.546 65.195 103.213 83.8048 82.8965 204.786 
212.893 45.923 99.9664 224.109 209.909 111.197 157.017 184.647 -0.10479 
129.886 33.508 82.8998 103.712 156.006 0.0728802 75.1545 212.785 0.0561925 
270.604 100.992 77.0517 138.531 157.092 42.3098 69.5828 70.3804 137.845 
112.584 64.1783 155.071 127.256 96.1591 108.002 264.142 144.705 17.5205 
17.9455 118.18 8.36995 71.9769 159.558 176.37 199.279 100.822 0.0653291 
134.577 198.02 86.6845 165.052 223.625 80.381 108.642 123.935 178.048 
25.8022 190.444 204.781 196.841 221.441 174.553 123.965 162.796 169.676 
115.248 114.058 14.9882 60.7599 142.627 0.0569054 80.9579 45.8074 117.558 
245.788 156.424 186.219 190.907 257.818 185.03 98.8274 183.908 130.42 
178.848 47.6749 182.717 198.592 154.864 204.753 226.883 68.6582 49.6554 
281.333 191.743 196.817 284.696 189.631 30.1799 14.5787 143.572 89.7325 
40.9399 85.2246 93.8633 75.796 85.8851 71.7626 135.536 129.471 61.6455 
167.414 76.7783 46.004 164.99 105.262 78.0941 81.6142 206.02 94.0041 
220.122 53.1339 80.5076 41.3058 120.402 114.933 161.251 204.078 82.2908 
24.2485 110.323 88.2641 196.265 147.154 0.0985208 168.516 257.397 204.357 
86.1278 187.044 204.765 45.5046 100.524 143.169 131.997 126.01 182.864 
205.891 208.035 4.25849 279.084 168.256 55.5265 249.676 113.948 0.0241084 
35.3514 90.9729 191.449 114.79 83.7982 204.75 277.964 108.841 26.6583 
154.233 225.409 23.6725 154.736 74.4185 180.965 64.6291 91.8687 180.796 
252.128 96.7321 201.966 64.6857 86.4903 101.224 199.842 206.844 159.263 
45.3368 193.69 126.068 165.119 61.7982 0.0230576 161.301 159.624 133.607 
233.521 181.057 183.375 282.979 123.545 161.316 36.7696 222.691 71.0134 
70.8885 232.215 180.32 199.338 126.187 194.819 146.222 181.805 115.097 
291.259 145.552 2.07804 218.732 222.988 158.237 127.689 125.157 197.544 
104.401 257.317 151.423 154.193 174.077 112.468 94.0477 112.494 67.9614 
205.077 167.889 145.44 76.5079 167.405 0.02355 291.218 138.349 25.3047 
203.93 41.055 109.31 114.024 61.3553 121.434 12.8669 138.424 23.9333 
259.14 217.116 51.5914 155.213 37.9391 65.4675 175.199 120.04 106.807 
158.892 154.87 194.847 74.8795 181.263 48.1238 147.488 199.715 66.0648 
126.494 44.7871 24.0517 223.873 181.407 22.9786 59.908 171.42 93.7653 
14.5507 156.964 97.4884 12.5895 190.837 33.0425 155.369 138.048 21.6219 
169.937 200.55 24.9795 194.093 88.7832 204.812 68.9604 136.888 85.0923 
104.06 55.4043 169.189 73.6556 249.395 62.6865 288.236 145.475 108.645 
72.8744 61.2723 8.42853 142.22 83.2725 122.003 87.175 68.6407 149.28 
29.3798 141.279 49.7232 115.885 67.7181 87.6515 285.903 185.249 87.3623 
36.4668 188.902 158.768 211.364 67.7676 166.347 182.335 141.708 103.721 
164.493 252.771 18.9481 250.413 208.98 141.607 241.783 70.9567 19.4924 
25.174 177.227 0.0461728 152.37 77.1467 204.747 18.9734 119.235 109.971 
195.56 66.9144 204.773 105.293 44.662 66.2971 223.295 157.334 77.6507 
268.726 173.606 150.543 123.828 64.8906 0.0681483 116.602 90.8411 148.499 
197.734 138.717 204.774 218.679 204.61 204.778 108.586 166.383 150.097 
218.908 228.344 185.551 154.826 225.589 188.773 125.328 76.368 181.549 
143.032 194.04 22.5778 10.4635 180.675 185.579 68.9913 140.407 167.209 
12.892 151.071 116.826 10.478 140.678 192.052 36.2855 208.887 0.0410235 
154.419 250.788 148.051 160.636 178.326 154.273 161.807 249.31 35.0854 
162.803 31.0811 121.308 79.4243 157.932 144.568 77.1921 73.2057 121.908 
194.766 173.677 92.0753 56.0908 236.896 138.773 240.759 91.3361 162.343 
113.938 146.783 186.667 250.397 203.888 123.285 100.207 254.214 204.736 
215.919 58.4736 194.584 35.5502 104.126 0.0706491 156.652 94.4242 204.761 
213.759 252.047 13.1638 155.73 172.782 61.604 106.088 63.5349 124.607 
218.141 186.154 153.266 124.307 137.832 0.0760347 35.8913 94.5886 16.5649 
288.054 153.357 151.938 87.1297 139.525 194.711 209.043 154.882 122.152 
131.179 62.5041 136.496 130.038 251.666 101.214 105.568 165.195 84.2443 
140.223 182.123 204.768 57.8968 131.057 47.1876 241.454 237.604 98.4133 
63.6313 70.0495 148.326 195.415 251.985 114.397 134.198 137.142 171.612 
57.5974 226.724 204.755 238.568 77.4804 51.716 105.732 127.227 51.9548 
59.5177 107.055 58.7341 114.246 253.327 56.6878 68.8727 195.148 181.247 
273.925 103.18 153.207 197.335 71.5968 0.0572447 215.271 121.599 197.936 
27.6846 192.064 191.629 120.877 205.323 154.71 55.2476 200.574 107.74 
[...]
CELL_DATA 10920
SCALARS Materials int
LOOKUP_TABLE default
1 1 1 385 1 193 129 257 1 
385 1 1 1 65 1 449 193 257 
1 1 1 1 1 1 1 1 1 
1 385 1 1 465 385 1 385 1 
385 1 1 257 1 1 385 1 1 
1 385 1 1 385 1 1 449 1 
1 1 257 65 1 1 1 1 1 
1 1 193 1 1 1 65 1 1 
1 1 385 385 465 1 257 1 1 
321 1 65 257 1 1 1 1 193 
1 385 1 385 65 1 193 1 385 
385 65 1 1 1 1 1 193 385 
385 1 1 1 1 1 1 1 1 
1 257 257 1 1 385 17 1 1 
321 1 1 1 193 1 1 1 1 
1 1 65 1 1 193 1 257 1 
1 1 385 1 1 1 1 1 257 
1 1 33 1 385 1 1 1 385 
65 1 1 1 1 1 385 1 1 
65 1 1 1 1 1 1 1 1 
1 1 385 1 65 1 1 1 1 
1 1 1 449 65 1 1 385 97 
257 1 193 385 385 1 1 65 97 
321 65 1 1 1 33 193 1 65 
385 193 1 1 1 1 65 1 65 
1 97 385 451 1 1 1 1 1 
1 1 1 65 465 1 449 385 1 
385 1 1 1 1 1 1 97 1 
1 193 1 1 1 385 1 385 1 
1 257 1 193 1 1 385 1 1 
1 1 65 1 1 257 193 1 1 
1 1 1 1 1 193 1 1 1 
385 1 1 1 385 1 1 193 257 
1 1 1 193 193 1 385 385 1 
385 1 385 257 1 1 1 321 193 
1 33 1 1 1 193 1 1 193 
193 1 65 1 1 1 1 1 33 
385 193 1 17 1 1 1 1 193 
1 65 385 1 1 1 1 385 1 
385 1 1 385 1 1 1 1 1 
385 97 1 1 1 1 1 193 1 
1 385 1 1 1 1 1 193 1 
385 257 449 1 1 385 257 385 1 
1 1 1 129 1 1 1 1 1 
1 385 257 1 1 385 321 97 1 
1 1 1 1 385 385 1 1 1 
321 385 1 1 385 1 1 1 1 
1 385 1 1 1 1 1 97 385 
193 1 33 1 257 1 385 193 1 
257 1 1 385 1 257 257 1 193 
1 193 449 449 385 1 65 1 1 
257 385 193 1 129 193 193 1 385 
1 1 449 1 385 1 1 257 1 
1 1 321 1 1 385 1 1 257 
1 1 385 1 1 1 1 1 385 
1 1 385 257 1 1 193 1 1 
193 65 1 257 1 1 1 1 1 
1 1 1 193 1 1 385 1 1 
1 1 385 1 65 257 1 1 1 
385 1 1 1 193 1 465 65 1 
449 193 385 1 1 193 1 193 65 
65 1 1 1 129 1 385 65 257 
1 1 1 1 385 1 257 449 1 
257 1 193 1 385 385 1 449 385 
1 1 193 1 1 1 1 1 1 
65 1 1 193 193 1 193 1 1 
385 1 321 257 1 193 385 1 257 
193 465 1 1 257 1 1 385 1 
1 193 1 1 385 1 193 1 385 
1 1 1 65 1 1 1 385 1 
1 1 1 1 1 1 1 193 1 
1 1 1 1 465 1 1 1 1 
1 1 1 385 1 1 385 385 1 
1 385 1 321 1 1 1 1 1 
65 65 1 257 1 1 1 1 1 
1 385 385 193 1 193 1 1 1 
1 1 385 385 1 1 1 1 257 
1 1 1 193 1 1 1 1 1 
1 385 385 1 385 257 1 193 1 
129 385 1 385 1 65 1 1 1 
1 385 1 1 1 1 1 1 1 
193 1 1 1 1 129 257 385 193 
449 129 129 1 1 1 1 449 1 
1 257 385 1 385 1 193 1 65 
385 1 17 257 1 1 1 385 385 
193 1 1 1 257 1 465 65 1 
1 65 385 1 1 385 1 385 1 
97 193 1 1 385 257 385 1 33 
1 1 1 1 1 1 193 1 1 
1 1 1 449 257 1 1 385 193 
1 1 1 385 129 1 1 257 129 
1 1 465 465 65 1 385 385 1 
97 1 1 1 1 1 1 1 1 
1 1 1 1 1 385 1 1 1 
1 321 1 1 257 1 321 321 129 
1 449 1 321 1 1 1 1 1 
257 1 385 385 33 385 1 385 1 
1 1 1 193 1 97 1 193 257 
257 1 1 1 1 1 1 1 257 
449 321 1 1 65 1 465 1 1 
1 385 1 385 1 65 1 1 33 
1 193 449 1 33 449 1 257 1 
385 1 97 385 257 385 449 1 65 
1 1 257 385 1 385 385 1 1 
1 385 1 1 65 1 65 193 1 
1 321 1 385 321 321 65 193 65 
465 1 97 385 1 193 1 1 1 
1 1 1 465 1 1 257 1 1 
193 1 1 1 385 257 1 1 385 
1 385 385 1 1 1 1 385 97 
385 257 1 321 1 257 65 1 1 
385 257 385 385 1 1 1 129 385 
1 1 1 385 1 1 1 1 1 
385 1 321 1 1 1 1 65 1 
1 1 1 385 129 1 1 1 1 
1 1 1 1 1 1 1 1 385 
385 1 385 385 1 385 1 1 1 
1 385 449 385 1 449 1 1 1 
1 385 65 1 385 385 1 1 97 
1 65 1 65 65 1 65 65 385 
1 1 65 1 1 1 1 385 257 
1 193 65 1 1 1 65 1 385 
385 1 1 257 385 1 1 385 1 
1 1 1 1 193 1 385 1 65 
1 321 1 1 65 385 1 1 449 
97 193 385 385 1 465 1 1 385 
1 193 1 1 385 1 1 1 1 
1 321 1 65 385 193 1 465 385 
1 1 385 1 385 193 1 1 1 
1 385 97 385 385 1 1 385 1 
1 1 1 1 1 193 65 1 1 
1 1 65 1 257 65 321 1 1 
385 65 1 1 385 1 193 1 1 
321 1 1 1 193 385 257 1 385 
1 17 385 385 193 257 1 257 97 
257 1 1 1 1 1 1 385 449 
1 1 1 1 1 385 1 1 193 
1 1 385 1 1 385 1 1 385 
193 193 385 1 1 1 385 385 385 
385 1 1 1 1 1 1 1 65 
1 1 1 1 1 1 385 1 385 
385 1 321 1 1 1 257 385 1 
449 129 321 1 1 1 1 65 1 
385 1 385 1 1 1 453 1 1 
1 1 1 385 1 1 385 193 1 
1 97 1 1 1 1 1 385 1 
17 65 1 1 1 1 1 1 193 
1 193 193 449 385 65 385 1 385 
1 1 385 1 65 1 1 1 1 
385 1 1 1 385 1 1 385 1 
1 1 1 1 385 1 1 1 1 
1 1 33 385 385 385 1 385 1 
465 33 1 465 193 1 1 385 1 
385 1 1 1 1 1 1 1 385 
129 1 1 1 257 1 1 1 1 
1 1 385 1 1 1 1 257 1 
1 449 1 385 385 1 1 1 1 
1 1 1 1 385 1 97 1 1 
1 385 129 1 1 1 1 1 33 
1 1 385 1 1 385 1 1 1 
385 193 1 193 1 1 1 385 1 
385 1 193 1 1 1 465 1 257 
1 1 449 1 97 193 1 1 1 
1 1 1 1 1 257 385 65 1 
257 1 1 385 1 1 1 65 193 
1 97 385 193 1 1 1 1 385 
1 129 385 1 1 385 385 449 1 
385 1 129 1 1 1 1 1 1 
1 385 1 1 1 1 1 453 1 
1 1 1 1 1 1 1 1 385 
1 1 1 1 385 1 1 1 1 
65 1 1 1 193 1 1 385 1 
1 1 1 1 385 1 257 1 129 
1 1 1 1 1 1 1 1 385 
1 1 1 65 449 385 1 385 385 
1 1 97 33 1 385 1 1 465 
385 1 1 1 385 1 257 1 257 
321 1 385 453 1 193 1 257 1 
1 385 65 97 1 1 257 193 33 
1 385 1 1 465 453 385 1 385 
1 1 1 385 385 97 465 1 1 
385 321 1 385 65 385 385 1 193 
1 1 1 385 449 1 1 1 1 
193 1 1 1 1 1 1 1 193 
1 1 1 385 1 65 1 1 385 
1 193 97 1 385 385 1 65 193 
65 1 385 33 1 1 97 1 1 
1 1 1 1 65 1 1 1 1 
1 97 65 1 1 1 65 1 321 
1 1 1 1 385 1 1 1 1 
385 321 385 1 1 1 385 385 17 
1 1 1 385 451 1 1 385 1 
1 385 385 1 257 1 385 1 1 
1 1 1 1 1 17 1 17 1 
97 1 1 1 1 1 1 1 1 
385 1 451 1 1 1 65 1 385 
385 1 193 1 193 1 385 1 1 
385 193 385 1 65 385 385 65 1 
1 1 33 1 1 1 1 1 1 
1 1 1 1 321 1 257 385 385 
65 1 1 1 465 193 1 1 1 
1 193 449 1 1 1 1 65 33 
1 1 1 1 1 1 1 1 1 
193 385 1 1 1 1 1 1 1 
1 1 1 1 1 1 385 1 451 
1 1 1 1 193 1 1 1 465 
1 1 385 1 1 1 1 1 1 
385 449 65 1 1 1 385 385 65 
385 321 1 1 385 1 97 1 385 
1 385 385 1 257 65 1 1 1 
1 1 1 1 1 385 1 1 1 
1 1 385 1 385 385 65 1 1 
1 1 1 1 1 97 1 1 97 
193 1 1 193 1 321 1 1 1 
193 1 257 1 385 385 65 65 1 
1 385 1 385 1 1 1 1 1 
1 1 193 385 1 1 1 1 1 
385 449 465 1 449 1 1 1 1 
97 385 1 1 1 385 1 385 1 
1 1 1 1 1 449 1 1 1 
1 1 321 193 1 1 1 1 1 
385 1 1 1 385 193 1 385 385 
1 1 1 1 1 257 1 1 1 
321 1 1 1 1 1 1 1 193 
193 193 1 449 1 257 193 1 65 
1 1 193 1 321 1 1 385 193 
1 1 385 1 1 1 385 1 1 
1 385 193 385 1 385 1 1 385 
465 1 1 1 385 1 1 1 1 
1 257 257 385 1 65 1 65 321 
1 1 1 1 1 385 257 1 257 
385 257 1 1 1 1 1 1 1 
1 1 1 1 1 1 1 1 1 
257 1 385 449 1 1 1 1 1 
193 1 129 1 1 385 1 1 1 
1 97 385 1 1 1 385 1 1 
65 65 257 65 1 65 1 385 321 
465 1 1 65 1 193 1 1 257 
1 193 1 1 193 1 193 1 465 
1 1 65 1 129 1 1 1 385 
385 193 1 1 1 97 1 1 1 
385 1 385 1 1 1 1 1 1 
1 1 1 1 385 1 1 385 1 
65 1 257 1 1 97 1 1 385 
449 1 1 257 1 1 1 1 1 
1 65 1 129 65 1 1 1 385 
1 1 193 321 1 451 385 1 1 
385 1 1 1 1 1 1 1 1 
1 1 1 33 385 1 1 1 1 
257 385 1 1 1 1 1 1 1 
1 97 1 1 65 1 1 1 385 
65 1 1 1 257 1 385 1 1 
1 385 1 1 65 129 1 1 1 
1 1 1 1 385 1 385 65 1 
1 385 385 1 1 1 1 1 193 
1 449 1 385 465 1 1 1 1 
1 193 1 1 257 385 1 385 1 
33 321 1 65 97 1 1 385 385 
385 1 33 1 1 1 1 1 1 
1 1 129 1 1 1 1 1 385 
1 1 1 1 257 97 1 97 257 
257 65 449 1 1 1 1 1 257 
1 385 1 1 1 1 1 1 1 
1 129 257 385 257 385 385 1 1 
1 385 385 1 1 385 193 65 193 
1 1 1 1 385 385 1 1 1 
1 193 1 1 1 1 385 385 1 
1 1 1 385 1 65 1 1 1 
1 65 1 65 465 257 33 257 385 
385 1 257 1 1 1 1 1 1 
1 1 1 193 385 97 1 1 385 
385 65 97 1 193 1 1 385 1 
1 1 1 1 65 193 1 1 465 
129 1 385 193 449 385 1 385 193 
1 1 1 321 1 465 385 1 1 
1 33 1 1 1 1 1 385 1 
1 1 1 1 257 1 1 97 1 
257 1 33 1 1 1 1 1 385 
1 257 451 1 97 1 193 449 65 
1 1 193 257 193 385 1 1 1 
1 1 385 1 1 1 1 1 385 
385 385 1 1 1 385 65 1 1 
1 465 193 193 1 1 1 1 1 
129 1 1 321 1 129 97 1 1 
257 1 1 97 385 385 1 193 1 
257 1 449 1 1 193 1 1 193 
1 385 1 1 321 1 385 1 385 
1 1 193 1 257 385 385 65 1 
1 1 1 1 193 1 65 1 385 
193 385 1 1 1 1 1 385 193 
385 1 1 1 1 1 385 1 385 
385 385 1 1 1 385 385 1 1 
1 65 1 1 1 385 1 129 65 
257 1 385 1 1 1 1 1 449 
1 465 1 1 1 385 385 1 97 
1 1 1 1 385 193 193 1 385 
1 465 193 1 385 193 385 1 257 
465 1 1 385 321 1 193 385 1 
1 321 65 385 1 1 1 1 65 
1 465 1 257 1 1 385 1 1 
1 1 1 1 385 385 1 1 1 
1 65 385 1 65 1 1 1 385 
193 1 1 1 1 385 1 1 65 
193 1 1 257 385 1 1 1 1 
385 1 385 385 1 1 385 1 1 
1 193 385 129 1 1 1 1 1 
257 193 1 1 1 1 1 1 1 
1 1 1 257 385 1 1 385 1 
257 1 1 1 1 385 1 1 1 
385 193 1 65 65 1 1 321 1 
1 1 257 1 1 385 385 1 385 
1 385 1 1 65 1 1 1 193 
1 385 65 385 193 193 1 1 1 
1 1 1 465 1 1 1 1 1 
1 1 1 1 385 1 257 385 385 
1 1 1 1 385 1 1 1 65 
1 1 1 385 1 193 65 321 65 
1 33 1 1 1 1 193 385 1 
385 385 33 1 1 1 1 193 1 
1 1 385 1 1 1 1 1 1 
385 1 449 465 1 193 385 1 1 
1 1 1 385 1 129 1 1 385 
385 1 1 1 17 193 1 193 385 
1 65 1 385 449 1 385 1 257 
1 1 1 1 1 1 1 1 65 
385 385 1 1 65 1 193 1 97 
385 385 385 1 1 1 1 385 321 
1 385 1 449 385 1 97 1 193 
257 1 1 1 1 193 97 1 65 
1 1 1 1 193 1 257 1 1 
1 385 385 97 65 1 1 1 385 
1 385 385 1 449 257 385 1 1 
321 1 129 385 385 1 385 1 1 
1 385 385 1 1 385 1 449 1 
1 1 1 257 65 1 1 1 1 
385 257 1 65 1 465 1 1 257 
1 1 193 1 193 1 1 1 1 
385 1 17 385 65 1 1 1 257 
385 257 385 385 1 193 385 1 1 
385 1 1 385 1 193 385 1 1 
465 1 453 385 1 385 385 65 1 
1 1 1 1 97 385 129 1 1 
1 65 1 1 449 1 1 1 1 
1 385 1 1 1 1 385 1 193 
1 385 1 385 1 1 385 385 1 
65 1 1 193 1 1 1 449 1 
1 1 385 257 257 1 1 1 1 
1 17 321 1 1 1 1 1 1 
1 1 1 257 1 193 1 321 1 
1 385 385 385 97 1 97 1 1 
1 1 1 1 1 1 385 1 1 
257 1 321 1 385 385 1 385 193 
1 97 1 1 257 1 1 65 193 
1 321 1 1 1 1 1 1 1 
1 385 257 449 1 1 1 1 1 
193 1 1 385 1 385 1 1 321 
1 385 1 1 1 1 1 385 1 
1 257 1 1 321 385 97 1 1 
1 1 385 1 1 385 1 1 1 
65 385 129 1 193 1 193 385 1 
1 385 1 129 1 1 1 193 1 
385 1 97 1 193 385 1 385 1 
449 1 1 1 1 385 1 1 65 
1 385 97 385 1 1 1 1 97 
449 1 1 65 1 385 385 1 1 
1 65 1 1 1 1 129 1 1 
1 1 1 321 1 97 65 1 385 
257 1 1 385 385 1 1 1 193 
1 1 1 1 1 1 1 1 1 
1 1 321 385 385 1 1 385 1 
1 17 1 65 1 1 1 1 1 
193 1 1 193 1 1 385 1 257 
385 1 385 385 257 257 1 1 1 
1 1 193 129 1 1 1 1 1 
129 257 1 193 1 1 1 1 385 
1 1 321 257 385 33 1 1 257 
385 1 1 1 1 1 1 129 1 
385 1 193 1 1 1 1 1 257 
449 1 1 453 1 1 1 385 385 
1 1 1 385 1 1 1 449 1 
385 385 1 1 1 1 449 1 385 
1 1 1 97 1 257 385 1 1 
1 1 1 1 385 1 385 1 385 
1 385 385 1 1 1 129 1 17 
1 385 193 65 385 449 385 1 385 
385 385 1 65 385 97 385 385 33 
1 1 1 385 1 129 1 1 385 
1 97 1 33 193 1 193 97 1 
1 1 97 1 1 1 1 385 1 
1 385 385 1 321 1 1 65 257 
1 193 1 1 1 385 1 1 1 
385 1 97 1 1 1 1 1 129 
1 129 1 1 1 97 1 1 1 
1 1 1 1 385 1 65 257 1 
65 193 1 1 1 1 1 65 65 
385 385 1 1 1 1 1 1 1 
1 1 465 33 257 1 1 385 1 
1 1 385 1 1 1 1 1 193 
385 385 465 1 385 1 385 1 1 
193 385 385 65 385 385 385 1 1 
1 1 1 1 1 1 257 65 1 
1 1 257 1 1 1 17 1 385 
1 465 65 1 1 449 1 385 1 
1 193 385 385 1 1 1 385 1 
1 1 1 1 1 193 65 1 1 
1 65 1 385 1 1 257 1 385 
193 97 65 1 1 193 1 1 1 
385 1 193 385 1 1 385 1 385 
1 1 321 193 65 1 33 257 1 
1 1 1 1 1 33 1 1 1 
257 1 193 193 1 1 1 1 449 
1 257 129 1 1 321 1 1 1 
1 1 1 1 1 1 1 1 257 
65 1 1 1 1 1 1 321 193 
97 1 1 1 1 1 257 1 1 
1 1 1 1 1 1 257 1 1 
1 1 1 385 1 1 1 1 1 
385 1 385 1 193 1 385 1 385 
1 1 385 1 1 257 1 65 1 
1 1 1 1 1 1 1 1 385 
321 33 1 1 1 465 257 1 1 
1 1 1 1 1 1 1 1 1 
1 1 1 1 1 385 1 1 385 
1 1 1 1 1 1 385 1 321 
1 65 1 1 1 1 1 1 1 
1 129 385 385 1 65 449 1 1 
1 1 1 1 1 321 385 65 1 
1 1 65 1 1 385 1 321 17 
385 385 1 385 1 1 33 65 1 
257 1 1 1 1 65 385 385 1 
385 257 65 1 1 1 65 1 1 
1 1 1 65 1 1 1 1 1 
1 385 65 1 97 1 385 1 1 
1 385 385 1 1 129 1 1 385 
1 1 1 385 1 1 257 193 1 
65 385 321 1 1 65 257 1 1 
1 1 65 1 257 1 385 1 257 
1 385 193 321 1 1 1 1 1 
1 1 193 1 257 1 1 1 1 
1 1 1 1 1 1 1 129 465 
1 385 1 1 193 1 1 1 1 
257 449 193 65 385 33 193 1 1 
1 65 385 65 1 1 1 193 465 
1 1 1 1 1 1 1 1 1 
1 1 1 1 385 1 385 1 1 
257 385 1 1 385 129 1 129 1 
257 1 1 257 1 1 1 1 1 
385 1 1 1 1 385 1 257 1 
1 1 1 1 193 1 1 1 1 
385 385 1 1 1 257 385 1 321 
1 1 1 1 1 129 465 97 257 
449 1 257 1 1 385 1 65 385 
193 65 1 1 1 1 1 1 1 
257 385 257 1 1 1 385 1 1 
1 385 1 257 257 1 1 385 257 
65 1 1 1 1 449 385 1 1 
1 257 1 1 1 1 65 1 1 
1 1 1 1 385 1 1 193 1 
1 129 1 193 1 65 1 1 1 
1 1 257 193 1 257 1 385 1 
1 97 1 257 1 1 1 385 1 
1 1 1 65 385 385 1 193 1 
1 1 1 385 97 385 1 321 1 
97 1 1 1 1 1 33 193 385 
1 1 65 257 453 1 1 1 1 
1 1 1 1 1 385 97 1 1 
385 385 1 1 129 1 1 129 1 
1 1 1 385 65 1 1 1 1 
1 385 257 1 1 1 1 1 193 
17 1 1 1 1 1 33 1 1 
465 385 193 1 1 65 1 257 193 
385 1 1 385 1 1 257 1 1 
257 1 1 65 193 1 97 1 1 
1 193 1 1 1 1 385 1 321 
1 385 193 1 1 1 97 257 129 
449 1 385 1 1 465 385 65 1 
65 1 385 1 1 1 1 1 1 
1 321 1 1 465 1 97 1 1 
1 1 257 97 1 1 257 1 1 
193 1 385 1 1 1 385 1 385 
65 1 1 1 1 1 1 129 1 
1 465 97 385 385 1 1 1 1 
1 1 1 1 465 1 1 1 1 
1 1 193 465 193 1 1 257 1 
1 1 1 1 385 1 1 1 1 
1 1 1 1 1 97 1 1 1 
1 65 1 321 65 1 257 1 1 
1 385 1 1 385 1 1 1 193 
1 1 1 385 1 1 193 1 193 
1 449 1 385 1 1 1 449 1 
1 1 257 385 1 1 17 1 385 
257 193 1 385 1 33 385 1 1 
1 1 65 1 1 1 1 1 1 
193 1 129 1 321 385 465 1 1 
1 1 65 1 257 1 1 385 1 
257 1 65 193 1 385 1 193 33 
1 33 193 1 1 65 1 1 1 
1 1 449 1 1 321 193 193 1 
1 33 65 17 1 1 33 1 1 
1 257 97 1 1 449 129 1 1 
193 193 257 1 193 385 1 97 193 
1 1 385 1 257 385 33 1 97 
385 193 385 1 1 385 465 449 1 
321 385 1 385 33 1 1 1 1 
385 1 385 193 1 449 1 1 1 
385 1 1 1 1 1 1 1 257 
1 1 1 385 1 97 385 385 385 
1 1 1 465 1 97 1 1 1 
1 1 1 385 257 1 1 1 1 
1 1 1 1 321 1 1 1 1 
1 65 385 1 1 1 1 1 449 
385 1 1 1 1 385 1 257 1 
1 257 1 1 1 193 1 449 1 
1 1 1 1 385 1 385 1 385 
451 97 1 1 1 1 129 1 385 
385 193 1 1 1 1 193 1 1 
1 1 65 1 65 1 1 1 1 
1 1 1 1 385 1 257 1 1 
1 1 1 33 1 385 129 449 1 
193 1 1 193 1 321 465 257 97 
1 1 1 97 1 385 321 1 1 
321 1 1 1 1 385 1 385 33 
1 193 449 1 451 1 1 257 1 
1 1 1 1 257 1 1 1 1 
1 1 193 193 1 385 1 1 385 
1 65 257 193 65 449 1 1 385 
1 1 1 1 1 17 449 1 1 
193 1 1 1 385 1 1 193 1 
1 193 1 1 385 1 1 465 1 
385 385 449 385 65 1 385 1 193 
1 385 1 1 1 65 1 65 1 
1 1 1 1 1 193 1 1 1 
1 193 1 1 1 97 1 257 385 
385 385 385 1 257 1 449 1 1 
1 1 1 1 1 1 1 321 385 
1 1 1 1 193 385 449 1 1 
65 1 465 1 193 385 1 385 33 
1 1 1 1 1 1 1 1 1 
257 193 1 1 1 193 1 257 385 
97 193 385 193 1 97 1 65 65 
65 1 385 1 385 1 1 193 65 
1 1 1 1 1 1 1 1 257 
1 1 1 1 193 1 1 257 1 
1 1 33 1 193 1 1 193 193 
1 1 1 1 257 1 1 1 129 
385 1 1 257 385 65 1 65 1 
17 465 1 1 65 1 1 385 193 
1 1 1 1 1 1 1 65 385 
1 193 385 1 1 1 1 321 1 
385 1 385 193 97 1 1 1 385 
129 1 385 385 1 1 1 465 465 
385 1 1 193 1 1 1 385 1 
1 1 1 1 1 193 1 1 65 
1 1 257 1 33 1 385 1 1 
1 1 1 193 193 1 1 465 1 
1 1 193 1 385 449 97 17 1 
449 1 321 385 385 1 1 1 1 
1 1 1 1 1 257 1 1 1 
1 1 1 1 385 1 1 1 257 
97 1 1 385 1 193 1 1 1 
1 1 465 385 129 65 1 1 385 
97 1 1 1 1 449 1 1 1 
1 1 1 1 1 257 385 1 193 
257 1 1 1 1 1 193 385 385 
1 1 1 1 449 1 1 193 385 
1 1 257 1 1 1 1 1 385 
385 257 1 385 1 1 1 1 449 
1 257 1 1 257 385 1 1 17 
1 65 193 1 193 1 1 1 1 
385 1 1 1 193 1 1 257 1 
1 1 1 1 1 449 193 449 1 
1 385 1 1 1 257 1 1 1 
385 1 385 1 1 193 385 385 1 
65 193 1 1 1 385 385 321 1 
1 1 1 1 1 257 193 97 1 
1 1 1 1 1 385 385 1 1 
321 1 1 1 65 385 449 1 1 
1 1 97 65 385 1 193 193 385 
1 1 1 1 1 193 1 1 1 
257 1 385 385 1 385 65 129 1 
385 1 257 1 1 1 1 65 1 
1 385 1 1 1 1 1 65 1 
385 1 385 1 1 257 385 1 385 
1 1 1 385 65 1 1 1 1 
193 1 257 1 1 465 1 1 1 
1 193 1 385 1 385 65 1 1 
385 1 385 385 385 1 1 1 385 
1 1 1 33 1 1 1 1 1 
1 385 193 1 1 1 1 385 1 
1 1 1 321 1 1 1 385 385 
385 129 1 129 1 1 1 65 1 
449 385 1 1 1 1 1 1 1 
33 385 1 1 65 257 193 1 257 
1 257 1 1 1 1 1 65 1 
257 1 1 193 1 1 1 193 1 
1 257 1 1 385 1 1 1 65 
1 1 1 385 65 1 385 1 1 
465 1 65 193 1 1 1 1 1 
1 1 65 1 1 1 1 1 449 
1 1 385 1 1 1 257 321 1 
385 1 1 1 193 385 385 1 385 
1 1 1 1 385 1 33 1 1 
1 1 257 257 1 1 257 1 385 
1 257 97 193 1 385 1 1 1 
385 257 1 193 1 385 1 193 385 
321 1 1 97 193 129 97 257 65 
1 1 65 385 1 1 1 1 1 
1 385 385 1 1 1 385 1 97 
1 385 1 385 385 1 1 193 1 
1 321 1 65 1 65 1 129 33 
385 97 193 449 1 1 193 65 385 
193 1 1 193 385 1 1 97 1 
193 1 17 193 65 257 385 1 385 
97 385 1 1 1 385 65 1 1 
385 449 1 257 1 1 65 385 1 
193 193 65 1 1 1 1 1 1 
385 1 1 1 1 1 1 65 1 
193 257 385 1 1 385 385 385 1 
1 321 1 385 65 385 97 1 129 
65 1 1 385 1 385 65 1 1 
1 193 257 1 129 1 1 1 193 
65 1 1 129 1 1 1 65 1 
1 1 385 1 385 65 1 1 1 
1 193 1 1 1 1 1 97 193 
385 193 1 1 1 1 1 1 385 
1 1 385 1 65 1 1 1 1 
1 1 1 1 1 257 1 257 1 
257 385 385 129 385 1 1 385 1 
1 257 65 33 321 1 1 385 193 
1 1 1 385 1 65 65 1 385 
1 193 1 129 1 1 385 1 385 
1 1 1 1 1 1 1 1 385 
385 1 65 1 385 1 1 1 1 
1 385 1 385 1 1 1 1 449 
1 1 257 65 1 97 1 385 257 
1 1 129 385 385 65 1 97 1 
257 449 1 1 1 385 1 1 1 
1 257 1 385 1 1 65 257 1 
1 1 1 193 1 1 65 1 1 
193 449 1 321 257 65 193 65 1 
385 385 65 1 1 97 257 1 1 
1 257 1 1 1 257 1 385 65 
1 1 449 65 193 1 385 1 1 
1 1 1 1 1 1 1 1 385 
1 33 1 1 1 1 65 65 1 
385 1 1 65 97 1 449 1 1 
1 1 257 1 193 1 1 385 97 
1 1 1 193 1 1 1 257 385 
1 1 1 1 321 65 385 1 385 
385 1 1 1 193 1 65 385 385 
1 1 321 1 1 1 1 1 321 
129 449 1 1 1 1 1 257 1 
257 1 1 1 193 1 1 385 385 
33 193 193 65 1 1 193 257 257 
385 1 1 385 1 385 1 385 1 
257 1 1 1 1 385 1 1 65 
65 1 97 1 385 33 65 385 1 
1 1 385 1 1 65 1 193 65 
385 1 449 385 1 1 1 1 321 
1 385 1 193 1 1 1 385 257 
1 1 1 1 385 1 1 1 321 
1 257 193 1 257 1 1 1 1 
385 193 65 1 1 1 1 1 385 
1 257 257 1 65 1 1 1 65 
385 385 1 385 1 1 65 1 1 
193 1 1 1 385 1 1 1 1 
1 465 1 257 1 1 1 1 321 
1 257 257 321 1 129 97 1 65 
385 385 385 1 1 321 385 1 1 
385 449 1 1 385 1 1 257 1 
1 1 1 1 1 1 193 257 193 
1 385 1 1 1 193 1 1 385 
1 1 1 65 1 1 65 465 1 
1 1 385 1 1 193 1 1 1 
1 1 1 17 1 1 449 1 1 
385 385 1 1 1 33 1 1 321 
1 1 1 1 1 1 1 1 33 
1 385 257 1 65 1 257 385 257 
1 1 1 1 1 1 385 1 97 
1 385 1 1 1 1 1 1 1 
1 385 385 129 193 1 1 65 385 
1 1 1 257 1 1 193 257 1 
1 1 1 1 385 1 1 1 1 
1 1 193 385 385 1 449 385 1 
1 1 1 1 65 33 1 1 1 
385 385 65 257 1 1 385 1 1 
65 129 321 1 33 257 1 1 1 
1 1 1 1 129 385 1 385 193 
65 257 1 1 1 1 1 193 193 
1 1 321 97 1 385 385 1 1 
1 1 1 385 1 257 385 65 385 
1 1 1 385 193 1 1 385 1 
1 1 1 1 1 1 65 1 1 
65 1 1 1 193 321 321 1 257 
1 321 1 321 385 385 1 65 65 
1 1 1 1 1 1 1 1 1 
1 465 1 1 1 1 193 1 1 
1 1 33 1 1 193 193 1 1 
1 1 1 1 1 385 1 65 1 
193 1 1 1 321 1 1 65 1 
1 1 1 1 1 1 1 1 1 
97 1 321 1 321 1 449 1 1 
97 65 1 1 449 65 1 97 257 
449 1 193 385 1 1 1 65 385 
1 65 1 1 385 1 97 65 1 
1 385 65 65 1 1 1 1 257 
65 385 1 1 1 1 449 385 1 
257 1 321 1 257 385 1 385 1 
257 193 1 1 1 1 1 1 1 
1 1 193 129 1 1 385 1 1 
385 1 449 1 1 1 1 1 1 
17 449 1 97 193 1 1 1 257 
193 1 1 257 129 1 257 1 1 
385 257 1 385 1 1 1 1 385 
1 129 385 1 1 1 257 129 1 
1 193 33 1 33 1 385 1 385 
1 465 65 1 1 33 385 385 1 
1 1 1 1 1 1 1 385 1 
1 193 321 1 1 385 1 1 193 
1 385 1 385 257 1 1 1 385 
97 1 1 1 1 257 1 321 17 
385 1 385 321 321 1 465 385 1 
1 385 1 33 1 1 97 1 193 
321 1 1 385 385 385 385 1 385 
1 385 1 385 1 385 1 193 465 
1 1 1 65 1 1 129 257 1 
65 1 385 257 1 1 385 321 1 
1 1 1 1 385 257 1 1 1 
1 193 1 1 1 1 1 1 1 
33 129 321 257 1 449 1 1 1 
385 65 193 1 385 1 193 321 1 
1 321 1 1 1 385 1 1 193 
1 1 1 1 193 385 321 385 1 
1 1 1 193 1 1 1 385 1 
1 1 1 1 1 1 449 1 1 
1 65 385 1 1 1 97 1 1 
1 385 1 1 1 385 1 1 449 
1 193 1 1 257 1 1 1 465 
1 385 1 1 1 385 1 1 193 
1 1 385 385 321 1 1 257 449 
1 1 1 33 1 1 385 1 65 
1 97 1 1 1 97 385 1 1 
1 257 385 1 1 465 1 385 1 
1 321 193 1 33 1 1 1 1 
1 1 385 385 1 385 65 385 1 
1 257 1 1 385 1 1 1 385 
1 1 257 1 321 1 1 193 193 
97 1 97 1 1 65 1 1 193 
1 1 1 97 1 385 385 449 1 
465 1 1 97 193 1 1 1 321 
1 385 97 1 193 1 1 385 129 
453 1 1 1 1 385 1 1 1 
129 1 385 385 465 1 1 1 1 
1 65 1 65 321 1 385 1 385 
193 385 1 385 385 65 257 385 1 
1 1 1 1 1 1 65 1 193 
1 385 1 1 1 1 1 1 1 
1 385 385 1 1 1 1 1 193 
385 385 65 97 1 1 1 1 385 
17 1 97 385 257 1 385 1 385 
1 385 1 1 1 1 1 1 465 
1 1 1 1 1 1 385 257 385 
1 1 257 1 97 1 33 1 321 
385 1 1 1 1 1 1 257 1 
1 1 385 1 1 193 1 257 1 
193 193 385 385 1 1 1 1 385 
1 321 1 129 1 1 1 1 1 
449 257 1 65 1 1 1 465 1 
385 1 1 1 1 1 1 385 65 
257 1 1 1 1 1 1 257 385 
1 1 1 385 1 1 1 193 33 
1 1 65 257 1 1 1 1 65 
1 1 1 1 1 17 385 97 1 
1 1 1 1 1 257 1 1 65 
1 385 1 385 193 1 1 385 1 
385 257 1 385 193 465 1 1 1 
1 1 1 1 1 1 449 449 257 
1 321 65 1 1 65 465 385 385 
1 385 449 65 1 1 1 1 1 
1 1 1 257 1 1 385 1 1 
1 193 193 1 385 1 1 1 385 
65 1 1 1 129 1 1 1 385 
385 257 449 1 1 65 1 385 1 
1 1 1 1 193 193 97 1 1 
1 385 257 1 385 1 65 1 193 
385 1 1 1 449 1 449 385 1 
1 1 1 385 1 1 1 193 1 
193 1 1 385 257 1 65 1 385 
1 1 449 1 65 1 1 1 385 