# vtk DataFile Version 3.0
vtk output
ASCII
DATASET UNSTRUCTURED_GRID
POINTS 3630 float
262.072 86.3266 107.813 197.369 152.249 185.328 16.0394 149.002 98.3563 
219.009 83.2507 192.068 161.417 176.413 19.3002 148.372 154.245 172.692 
239.472 236.776 115.959 267.227 227.013 11.08 31.3772 216.224 140.618 
115.766 50.3839 32.2961 133.678 185.941 18.8001 154.993 247.585 41.9088 
230.405 57.538 94.8264 187.024 253.094 103.863 131.966 139.145 109.069 
129.987 159.13 127.781 130.766 140.565 116.897 136.114 30.0419 91.1542 
234.915 100.353 -0.0128312 280.292 201.184 81.7596 38.1164 82.9957 147.435 
188.85 253.051 82.8221 280.913 114.715 105.728 51.8067 79.7766 72.4184 
113.841 253.085 123.781 284.184 121.828 157.651 41.6337 96.1444 33.5488 
142.322 152.711 108.207 280.479 119.024 176.698 95.2383 38.7686 128.478 
154.087 150.926 124.061 243.068 66.3455 169.156 26.3667 124.042 58.9449 
195.149 42.3689 152.171 95.1337 117.715 -0.0121856 15.9947 172.66 80.0811 
89.2116 118.326 0.0329007 284.923 182.573 77.7895 47.583 113.307 0.0722711 
74.1178 60.8702 11.3454 228.58 111.303 -0.0307624 99.1376 253.102 69.1041 
103.884 38.8358 148.306 152.012 162.271 126 221.507 93.8868 0.0560192 
271.24 95.7487 115.724 271.853 96.521 126.808 126.016 145.319 117.588 
173.994 71.6753 0.043905 69.1859 68.6761 57.5862 208.93 235.066 -0.0309937 
206.098 147.738 172.736 52.7677 160.541 1.13792 75.6166 49.4152 111.98 
252.331 233.462 89.8237 174.258 125.141 170.088 125.415 151.987 114.995 
147.449 138.798 112.094 130.284 141.616 117.074 127.368 145.501 120.863 
124.688 158.009 112.411 112.306 38.7158 162.171 285.087 165.612 57.147 
16.0108 161.489 71.1758 108.093 146.35 0.0375829 80.32 44.8411 116.884 
137.408 166.801 154.257 200.67 45.7119 160.102 33.7784 109.994 37.8522 
80.9819 148.939 -0.0892031 198.567 47.8884 0.912001 92.2306 38.7107 121.207 
125.127 146.573 106.437 129.13 153.288 124.441 64.2418 240.265 44.7572 
188.092 38.7956 82.4932 149.202 145.863 111.456 156.043 43.3727 20.9643 
156.629 153.062 2.4826 34.3013 212.261 114.767 72.0683 51.6362 119.037 
214.009 210.871 0.0330964 157.496 244.951 192.015 84.2536 63.691 37.4321 
140.043 43.2609 51.3662 262.122 223.511 102.278 68.3168 235.672 41.9675 
28.1064 112.443 30.1129 33.4092 92.2113 121.498 153.504 137.175 157.519 
142.24 141.628 111.024 147.117 161.106 175.972 106.003 43.4919 72.6398 
157.541 33.2218 85.3719 16.0077 158.38 69.8227 63.111 61.9287 89.5367 
116.642 162.862 0.0773594 197.584 168.687 133.076 22.1307 151.796 -0.0670105 
134.973 150.765 0.0885 209.365 253.074 73.0492 132.463 65.9444 192.083 
62.7463 245.232 159.991 272.678 210.177 96.947 134.617 61.8398 192.022 
56.9501 74.7114 17.6918 80.107 66.1505 42.4104 221.645 52.115 93.0888 
223.564 68.5287 191.928 28.1123 201.514 109 197.132 168.889 133.209 
208.996 47.7558 78.5194 233.303 70.7846 40.3501 108.135 83.9612 0.0750236 
216.422 85.6517 0.0299083 201.359 175.349 155.413 174.378 35.0042 143.971 
204.639 47.5003 164.202 11.3364 145.463 122.651 255.455 229.161 59.7595 
149.072 147.011 114.293 251.305 70.8653 144.635 234.563 240.122 133.991 
156.39 248.508 25.9087 6.93348 161.526 25.8395 152.508 131.25 137.038 
219.867 142.492 0.00200917 96.8194 56.5263 49.7144 234.456 67.508 64.8424 
191.202 171.263 128.101 69.546 74.5208 41.6592 129.912 150.488 130.866 
202.504 43.2541 153.651 145.516 137.23 134.678 129.376 139.664 106.875 
256.32 180.508 0.0637651 59.7344 145.783 0.0119955 104.528 253.099 116.043 
92.9666 38.8476 117.966 68.6638 52.5299 166.763 195.279 253.183 97.0748 
223.823 174.86 117.272 119.39 56.9133 192.032 45.2729 227.315 133.62 
123.599 155.836 109.719 47.7288 155.115 0.559802 122.79 163.788 120.421 
17.5517 208.525 -0.0425828 75.9846 249.969 148.589 254.235 166.147 0.066203 
287.25 132.512 15.4627 164.37 46.325 33.1 65.9398 111.165 -0.0158294 
116.078 37.9368 158.845 152.947 154.779 139.825 121.503 151.757 105.293 
249.797 159.283 147.713 277.746 201.753 95.0337 120.901 39.8025 67.2002 
49.756 125.429 -0.0421111 132.055 244.401 191.958 94.6625 83.112 185.585 
253.554 78.4402 180.296 138.766 257.559 170.783 126.876 140.861 108.095 
178.06 257.599 186.333 125.656 144.02 108.302 136.476 143.648 77.8476 
125.294 255.186 146.931 227.701 248.269 0.0605063 185.189 34.2294 104.995 
142.915 167.721 108.274 287.32 165.496 115.54 146.172 43.4303 180.111 
81.3802 55.8223 187.862 146.134 138.507 112.56 275.823 109.637 77.0706 
68.208 52.9693 168.759 149.671 184.837 165.227 282.845 124.079 81.7905 
115.093 253.023 49.9399 234.439 205.988 -0.0363702 139.805 178.441 113.852 
125.258 159.399 114.115 285 184.07 18.3487 284.91 185.919 87.5469 
53.5779 66.625 165.296 167.223 156.061 0.0345371 154.51 257.67 183.15 
150.193 169.347 107.549 211.07 184.469 2.93637 129.732 142.745 119.395 
200.188 160.978 0.0348669 160.149 248.582 32.1267 48.208 89.4305 34.3502 
241.078 239.345 156.22 125.058 170.85 126.482 124.195 150.714 6.46938 
275.794 105.479 162.702 207.129 48.3503 168.755 155.103 102.003 -0.0551186 
105.736 260.233 173.334 246.107 234.9 111.228 165.841 253.29 11.9994 
153.335 30.1031 87.0757 124.441 151.51 111.296 142.104 142.885 113.749 
203.966 214.436 3.77747 220.933 48.9716 118.507 138.636 237.009 191.946 
287.341 139.41 16.9955 15.8566 155.352 99.6762 183.322 48.0081 45.361 
128.997 159.078 124.073 26.6912 226.246 21.6612 144.304 138.328 113.703 
206.739 127.61 172.844 135.528 98.9508 -0.0795494 28.1642 143.785 56.0145 
22.1561 112.114 97.4438 188.657 253.156 121.827 287.244 145.688 23.3368 
142.712 137.746 17.9774 122.646 155.419 107.86 88.63 250.134 114.674 
156.771 34.4608 154.788 38.7987 243.405 5.6585 174.719 253.188 97.629 
212.576 236.677 0.0174461 192.997 99.5404 0.0621788 43.0912 226.102 132.54 
124.931 147.788 109.774 182.312 101.168 0.0155833 142.259 163.008 161.164 
101.826 252.98 77.5522 269.094 225.611 20.8883 193.803 165.032 120.78 
186.227 171.624 139.687 190.599 47.9428 20.6602 276.229 116.854 45.4119 
125.476 152.312 115.377 236.198 212.121 -0.0289427 138.177 145.083 135.143 
193.212 59.692 -0.0207118 99.0537 40.0624 88.4294 211.99 252.108 145.389 
147.351 43.3363 14.0089 201.294 39.5845 129.681 179.175 64.9646 -0.0455767 
242.794 66.6065 104.621 131.075 254.174 8.56082 212.113 201.521 13.0633 
136.649 92.3633 98.2974 210.863 47.9459 154.617 63.8689 225.664 -0.00351713 
149.079 138.054 75.724 152.486 44.9636 30.9426 155.077 30.196 87.3174 
67.4549 241.381 122.665 170.954 37.9428 67.6702 125.509 139.902 106.357 
141.448 152.696 108.384 137.472 138.928 115.83 56.2085 234.026 96.067 
61.8787 59.3654 113.377 202.475 41.6991 132.241 174.362 34.2227 121.508 
143.364 141.825 127.667 194.891 253.103 83.6192 160.193 131.086 191.969 
180.741 79.1661 192.037 187.933 47.6077 177.511 127.043 152.432 120.697 
142.902 164.302 105.738 95.7885 252.302 111.683 174.743 57.3348 192.069 
272.177 112.749 67.2431 140.581 135.723 20.8231 232.095 244.711 53.4004 
235.4 150.661 -0.0394112 268.093 98.5974 71.9359 106.701 35.5807 135.978 
51.6867 87.6283 37.9878 135.174 151.797 -0.106937 128.312 159.682 122.797 
184.368 124.443 172.829 74.65 69.224 40.5658 24.794 107.235 118.486 
116.202 140.056 26.5175 120.766 46.4016 56.2909 220.855 91.7819 0.0586281 
129.025 75.3739 0.0534411 180.451 253.033 109.337 245.133 243.922 9.84088 
126.335 219.362 192.024 194.748 218.197 0.000664558 164.669 125.355 159.559 
219.443 248.356 132.037 187.809 140.928 185.578 207.384 252.998 95.9346 
30.4518 129.75 54.8966 263.654 123.332 172.844 107.807 154.029 -0.0200166 
123.912 126.942 121.11 53.1567 62.6487 149.204 141.447 157.377 166.158 
155.122 222.905 0.0593609 149.838 202.441 0.481159 157.087 43.3046 0.652418 
100.2 45.6893 70.1296 249.303 231.5 131.05 106.288 48.9596 58.863 
2.25356 159.43 0.0800158 283.677 181.925 58.4335 110.357 262.166 182.155 
125.048 155.041 113.858 140.706 139.481 83.8846 71.8918 238.98 -0.0365828 
185.104 257.683 164.241 132.737 80.8728 -0.0239869 141.01 98.0949 -0.0929531 
133.973 60.299 192.047 287.309 149.587 87.5005 221.366 248.451 87.5012 
145.451 159.319 0.0381678 225.871 74.1239 192.065 252.57 141.032 0.0676306 
159.468 125.487 149.811 81.0265 50.7097 84.4756 54.8273 230.509 101.496 
275.094 101.499 132.854 209.846 47.2381 151.088 33.6616 215.03 85.333 
118.416 183.465 -0.0528634 183.752 178.17 131.204 153.068 149.88 139.473 
153.013 46.4544 43.2761 54.2873 221.282 -0.0030782 110.853 253.059 139.397 
121.876 170.343 119.248 22.8702 192.42 110.519 264.365 219.891 107.117 
20.6974 126.096 73.7448 117.993 58.358 192.054 115.18 88.409 90.4702 
119.152 51.666 40.4402 76.1411 65.9671 55.1731 47.1404 73.9147 145.918 
180.85 253.085 105.454 138.933 44.8733 184.22 275.953 104.315 105.037 
51.836 64.8098 150.975 265.635 89.7328 101.682 20.4453 181.751 95.7476 
150.543 134.382 140.184 128.501 141.706 110.891 200.85 174.774 158.306 
151.342 145.654 107.379 119.041 210.669 0.0145508 128.679 67.4472 -0.0624958 
146.544 196.778 -0.00640426 132.622 214.666 -0.0444552 162.485 226.051 -0.0468302 
109.923 38.7129 155.638 213.252 250.931 145.625 236.612 76.5611 0.0642609 
154.171 161.906 127.569 124.678 157.952 112.458 179.109 124.817 172.72 
212.812 96.3548 -0.0595731 263.29 109.658 0.0451376 130.196 154.891 172.981 
226.557 67.5267 46.31 198.657 91.2629 0.00668767 83.2776 248.936 44.8293 
175.616 45.0588 177.658 92.2722 248.891 94.4329 95.6174 49.1771 59.8109 
142.696 136.325 122.805 140.531 252.311 29.5168 160.088 43.291 19.8427 
206.438 47.8108 77.3285 253.027 162.747 140.806 201.1 175.467 153.851 
276.676 127.076 47.9221 152.814 168.786 108.26 49.4811 236.993 58.4846 
198.623 42.4838 145.584 150.544 195.772 44.8689 153.873 150.257 123.546 
85.4972 256.141 176.814 11.4403 205.104 9.70711 149.292 170.774 95.739 
182.003 253.085 81.334 231.824 65.9766 192.024 61.3701 106.34 -0.0333707 
80.7786 246.566 0.0555731 146.704 138.806 141.757 179.823 96.8592 0.0904953 
144.164 231.05 192.039 155.647 52.7871 -0.0813709 203.013 253.146 88.4745 
88.2113 194.414 6.41233 19.6434 217.57 19.5781 180.337 181.819 132.506 
[...]
CELL_DATA 16828
SCALARS Materials int
LOOKUP_TABLE default
1 1 1 1 33 1 1 1 1 
1 1 1 1 1 481 1 1 1 
321 1 1 1 449 65 1 1 1 
1 1 1 1 1 1 65 449 1 
449 1 1 1 1 449 1 481 449 
1 1 481 33 385 65 449 449 1 
1 1 1 1 449 1 449 481 1 
1 1 1 1 1 1 449 1 1 
65 1 1 1 1 1 1 1 1 
1 1 449 1 449 1 449 451 1 
1 1 1 1 1 1 1 449 1 
1 449 1 1 1 1 1 1 65 
449 1 1 1 1 1 321 65 1 
1 1 1 1 1 1 449 1 1 
65 385 1 1 1 1 481 1 449 
1 449 257 1 1 1 1 1 1 
1 1 1 1 1 1 1 1 1 
1 1 1 1 257 1 1 1 65 
1 65 1 1 1 1 449 1 193 
1 1 1 449 1 1 1 449 385 
1 65 129 1 1 1 1 1 1 
385 1 33 1 1 33 1 1 1 
1 1 1 1 33 1 1 1 1 
1 1 1 1 1 1 65 1 1 
1 321 1 1 1 1 1 33 1 
1 1 1 65 1 449 481 1 1 
1 1 1 1 1 1 1 1 1 
1 1 481 1 1 1 1 1 1 
1 1 1 65 1 1 449 1 1 
1 1 1 33 1 1 1 1 1 
1 1 449 321 449 449 1 1 1 
1 321 1 1 1 1 1 1 33 
1 449 1 1 385 65 1 1 481 
1 321 1 1 1 1 1 1 1 
1 193 1 1 65 449 257 1 33 
1 1 1 33 33 129 321 1 1 
1 1 481 1 1 1 129 1 1 
1 449 65 1 1 449 1 449 1 
1 451 1 1 321 449 1 1 1 
321 1 1 1 321 1 1 1 1 
1 65 1 1 1 1 1 449 1 
1 1 321 1 33 1 1 1 1 
1 449 65 321 65 481 449 1 1 
1 1 1 193 449 481 449 1 321 
449 1 1 129 1 1 1 193 1 
449 1 1 33 481 1 1 449 129 
1 1 1 1 1 1 1 1 449 
1 1 1 449 1 385 1 33 1 
1 1 1 1 1 1 449 1 33 
1 65 1 1 1 1 1 449 1 
1 65 1 1 1 1 1 1 1 
1 1 1 1 1 1 1 65 449 
1 1 1 257 1 1 33 1 1 
33 1 1 1 449 449 65 1 449 
1 193 1 1 1 33 385 129 65 
1 1 1 1 321 1 1 1 1 
1 1 1 1 1 1 449 449 481 
1 1 449 449 1 449 449 1 65 
1 1 1 1 385 1 451 449 1 
33 1 17 449 1 451 1 1 1 
1 1 1 449 1 1 65 449 1 
1 1 1 1 449 1 1 1 1 
1 65 1 1 1 449 1 1 1 
1 33 1 1 1 1 1 449 449 
1 1 449 1 1 65 1 1 1 
1 1 1 1 449 1 449 1 1 
65 1 1 481 1 1 1 1 1 
1 1 1 1 1 449 1 1 1 
1 1 1 1 33 1 1 1 65 
1 449 1 1 1 449 1 65 1 
1 1 449 1 1 65 65 1 1 
449 1 33 449 1 1 1 1 193 
449 1 449 449 449 1 193 1 1 
321 129 17 257 1 65 1 449 1 
1 1 449 1 449 1 1 1 449 
449 1 1 1 1 1 1 65 1 
1 1 257 65 1 1 1 449 65 
1 33 1 1 449 1 1 33 1 
1 1 257 1 65 1 33 257 1 
1 1 481 1 1 1 1 1 1 
65 17 1 1 1 481 1 1 1 
65 1 1 1 1 1 481 1 1 
1 451 1 1 1 1 1 1 1 
449 1 481 1 449 1 449 1 1 
1 1 1 1 1 1 257 449 33 
449 321 65 1 1 1 1 1 257 
1 1 449 449 321 1 1 1 1 
1 1 1 321 65 1 65 1 1 
481 449 1 1 1 1 449 1 1 
1 449 449 1 65 449 1 1 1 
1 1 1 1 65 257 1 1 1 
257 1 1 449 481 1 1 1 1 
1 1 449 1 257 449 1 449 257 
451 1 129 449 1 1 1 1 1 
1 1 129 449 1 1 385 65 1 
1 1 1 1 1 33 1 449 1 
1 1 1 65 1 1 33 1 1 
385 1 321 257 1 449 1 1 1 
1 1 1 1 1 1 449 1 1 
1 1 481 65 1 1 1 1 1 
1 1 1 385 481 449 1 1 1 
1 449 1 1 65 1 449 1 1 
385 1 1 481 449 449 1 65 1 
1 1 1 1 1 449 449 1 33 
1 1 129 481 1 1 1 481 1 
449 1 1 449 1 1 1 17 1 
1 1 65 1 1 1 449 1 65 
385 1 1 1 129 1 449 1 1 
449 1 1 65 449 1 1 1 449 
449 1 1 1 1 1 33 1 449 
1 481 1 1 1 1 1 65 481 
1 1 1 1 1 1 1 1 1 
33 33 65 385 1 1 449 1 1 
65 65 1 1 1 385 1 321 129 
451 481 1 1 129 1 1 1 1 
1 1 1 1 1 1 1 449 321 
257 65 33 1 449 1 449 1 1 
129 1 1 1 1 1 1 1 193 
129 1 1 1 1 1 65 1 129 
1 257 1 1 481 1 1 1 1 
1 1 449 449 1 449 1 1 1 
257 33 1 449 1 1 1 1 193 
1 449 1 1 1 257 33 1 1 
1 385 1 449 1 1 257 1 1 
1 1 449 1 1 129 1 257 257 
1 385 257 449 1 449 1 1 1 
1 449 1 129 449 33 481 1 1 
1 1 1 1 449 65 1 481 321 
1 1 1 1 1 1 1 481 1 
1 1 1 1 1 1 1 385 1 
1 1 65 1 1 1 1 1 1 
449 449 449 33 129 1 1 65 1 
449 1 1 1 1 1 1 449 1 
1 1 1 1 1 1 1 129 1 
65 65 1 385 1 1 1 1 449 
1 65 33 1 1 129 1 481 1 
129 449 1 1 33 1 481 33 1 
1 1 1 129 1 1 1 1 1 
449 1 1 1 1 1 65 1 1 
1 1 1 1 1 1 65 65 1 
449 1 1 449 1 17 193 1 1 
481 1 1 1 1 1 1 1 1 
1 129 1 449 1 1 65 1 65 
1 1 1 1 1 65 1 1 449 
1 1 1 1 449 449 1 385 1 
65 1 1 1 1 449 1 65 1 
1 65 65 449 1 1 1 1 1 
385 1 1 1 385 449 1 451 321 
1 1 1 1 65 1 449 129 1 
1 1 1 449 1 481 17 1 1 
1 449 1 1 1 1 33 1 1 
1 1 1 1 1 1 481 1 449 
1 33 1 1 1 33 1 65 1 
1 257 1 1 1 1 1 65 1 
1 449 1 1 1 1 1 1 1 
65 65 1 449 129 1 1 1 1 
1 449 1 1 1 1 33 1 1 
257 65 1 1 1 1 1 481 1 
449 1 1 1 1 1 1 449 1 
449 449 1 449 1 481 451 1 1 
449 449 1 1 1 1 1 449 65 
1 1 1 1 1 1 1 1 1 
1 449 449 1 1 1 1 449 1 
449 257 1 1 1 1 1 1 1 
1 1 1 1 1 1 1 65 1 
1 385 33 1 1 1 65 1 385 
1 1 1 1 33 449 1 1 1 
1 1 1 1 1 1 481 1 1 
1 1 1 1 1 1 1 1 1 
1 1 1 1 1 1 1 1 1 
1 1 1 1 449 33 449 449 481 
1 449 1 1 1 1 449 449 1 
1 1 1 321 449 1 65 1 1 
385 1 1 1 1 321 1 1 1 
1 449 1 1 1 1 1 1 65 
1 449 1 17 385 1 1 1 1 
1 1 449 17 449 1 1 1 1 
65 481 321 449 1 449 1 1 257 
1 1 1 449 1 1 385 1 449 
1 1 449 1 449 481 1 1 1 
1 1 1 1 451 449 1 449 1 
1 449 33 1 1 1 1 65 321 
449 1 1 65 1 1 1 321 1 
1 1 1 1 1 1 449 1 33 
449 1 481 481 65 1 1 1 129 
449 1 1 193 449 33 449 1 1 
1 1 1 129 1 1 65 385 449 
1 33 1 1 1 1 1 1 449 
1 449 1 1 1 1 65 1 1 
1 1 1 449 1 1 1 1 1 
1 33 193 1 33 449 1 1 193 
1 1 1 1 65 449 449 1 1 
451 1 1 1 449 449 385 1 1 
65 449 129 385 1 1 1 129 65 
1 1 65 1 449 1 1 1 1 
1 1 1 1 1 1 481 1 1 
1 481 481 1 1 1 1 1 1 
65 1 1 1 1 385 129 65 449 
33 1 449 65 1 1 1 1 1 
1 1 193 65 129 1 449 1 1 
1 33 449 1 1 1 1 449 1 
1 1 65 65 1 385 1 449 449 
451 1 1 1 1 129 1 449 1 
321 1 1 65 1 1 257 1 1 
65 449 1 1 1 449 1 1 1 
1 1 1 1 1 33 1 1 1 
449 1 1 1 1 1 1 1 1 
1 1 1 449 1 1 65 1 1 
129 1 65 1 33 1 1 1 1 
1 1 449 65 1 321 1 449 33 
1 1 481 1 65 1 1 449 449 
1 1 449 1 1 17 1 129 1 
65 1 65 1 481 449 1 1 1 
1 1 65 1 1 1 1 1 1 
1 129 1 65 449 385 65 1 1 
1 1 1 1 1 449 1 481 1 
449 1 1 1 1 1 1 1 1 
1 1 129 1 385 481 33 1 1 
65 1 1 1 1 65 1 1 1 
1 257 129 1 449 1 451 481 1 
385 1 33 1 65 1 1 1 1 
1 449 1 33 1 1 1 1 1 
449 1 1 1 1 1 1 1 1 
1 1 321 1 1 1 1 1 1 
449 1 1 1 1 1 449 17 1 
1 1 1 33 1 1 1 1 1 
1 1 1 1 1 1 1 193 1 
1 1 321 1 1 449 1 1 1 
385 1 1 449 1 481 1 1 1 
1 1 1 449 1 65 1 449 1 
1 1 1 65 1 1 1 1 65 
1 1 17 33 1 1 1 1 1 
449 1 1 1 449 1 65 1 449 
449 1 33 1 449 1 385 1 1 
1 1 449 17 1 65 449 1 1 
1 1 1 1 1 1 1 1 449 
449 449 1 1 1 1 1 1 1 
1 1 1 1 1 449 1 1 1 
449 451 1 1 449 1 257 1 65 
1 1 1 1 1 65 65 1 449 
449 1 385 1 1 449 1 451 1 
1 65 1 1 1 1 449 1 1 
1 65 1 1 33 1 1 481 1 
1 65 1 1 257 1 1 1 1 
1 1 65 1 1 1 449 385 33 
385 1 449 1 449 1 1 1 1 
1 449 1 1 1 1 1 65 1 
65 321 1 1 1 1 449 65 1 
1 1 1 1 449 449 1 1 1 
449 1 1 1 1 1 1 449 1 
481 1 449 1 1 1 1 1 129 
1 1 1 1 1 1 449 1 449 
1 1 1 1 449 1 257 1 1 
1 449 449 1 65 1 1 257 1 
1 1 1 1 449 1 1 1 1 
1 451 1 449 1 1 65 1 1 
65 1 449 1 1 1 1 33 449 
1 1 1 449 1 1 1 257 65 
1 1 1 1 1 449 1 129 1 
1 1 1 65 1 65 1 1 65 
1 65 449 65 65 1 1 1 449 
257 449 1 449 33 1 321 451 1 
1 1 449 1 449 1 1 1 449 
385 33 1 65 1 1 1 1 449 
65 1 1 449 321 33 1 1 1 
1 1 1 1 1 193 1 1 1 
1 1 1 449 1 1 385 1 65 
1 321 1 257 1 1 1 1 65 
481 1 1 1 1 1 1 1 1 
129 1 1 1 65 1 1 1 1 
1 1 1 1 1 1 481 449 65 
1 1 1 449 65 1 1 65 1 
1 1 449 1 33 65 33 1 1 
1 257 257 1 1 1 1 1 1 
449 1 1 65 1 1 1 1 1 
1 1 481 1 1 1 481 449 1 
1 1 1 1 1 1 17 1 449 
1 1 1 1 1 1 65 1 1 
1 1 1 1 1 1 1 129 1 
1 1 1 449 1 449 65 129 1 
449 1 1 129 1 1 1 1 1 
1 1 385 1 1 193 1 1 1 
449 449 1 1 1 65 1 1 1 
1 449 1 1 1 449 129 1 1 
1 65 257 65 1 65 1 1 1 
1 1 1 449 1 1 1 1 1 
33 1 1 449 1 1 1 1 1 
33 1 1 1 1 65 481 1 1 
449 1 1 1 129 1 1 321 1 
65 449 1 1 1 1 1 65 481 
1 1 1 1 481 1 257 1 1 
1 33 1 33 1 1 1 385 1 
1 481 1 1 1 1 481 1 1 
1 1 1 1 1 1 1 129 449 
1 1 1 129 1 65 65 1 449 
1 1 1 65 257 449 449 1 1 
1 1 481 1 1 1 17 1 1 
1 1 481 321 1 1 1 257 257 
1 1 1 65 481 385 449 1 1 
1 449 1 1 17 1 1 1 1 
33 1 1 1 1 449 1 1 1 
1 1 1 33 449 1 1 1 1 
1 1 1 321 1 1 1 1 1 
1 1 1 1 1 321 1 1 1 
1 449 449 1 257 449 1 1 1 
1 449 321 481 1 1 449 449 449 
449 1 1 1 1 449 1 1 1 
1 1 1 449 65 1 1 1 1 
1 481 33 1 1 1 1 1 65 
451 449 1 1 1 1 449 1 1 
1 1 1 65 1 33 65 1 1 
1 65 1 449 1 1 1 257 1 
449 1 1 449 1 1 1 1 1 
1 1 321 1 1 129 1 1 1 
1 449 1 449 449 481 1 33 449 
17 449 449 1 449 1 1 1 1 
1 449 1 1 385 385 1 1 1 
1 33 1 65 449 449 1 449 449 
1 1 449 1 65 1 65 451 449 
1 33 33 65 1 1 129 1 1 
449 449 1 1 385 65 449 1 1 
385 449 1 1 1 1 1 65 1 
1 481 481 1 129 1 1 257 1 
257 65 1 1 1 1 65 449 1 
1 1 1 1 1 1 1 1 1 
1 321 1 449 321 1 1 1 449 
449 1 1 449 1 1 129 1 1 
385 1 1 1 1 1 1 1 1 
1 1 1 129 33 1 257 1 1 
1 1 481 451 1 65 1 1 1 
1 1 129 1 1 33 1 449 1 
1 481 1 385 1 257 1 1 1 
1 1 1 1 481 449 1 17 1 
451 1 1 1 65 65 449 1 449 
193 1 1 1 481 1 449 1 385 
1 33 449 1 1 449 1 1 1 
1 1 1 1 481 1 1 1 321 
449 449 385 33 193 1 257 257 1 
1 1 257 65 1 1 257 1 193 
1 1 1 1 1 1 1 321 1 
1 1 1 1 1 385 1 65 1 
1 1 1 1 1 1 1 1 449 
1 1 1 449 193 33 1 1 1 
1 1 1 1 1 33 449 1 1 
1 1 1 1 1 1 129 1 1 
65 449 1 449 1 449 1 1 1 
1 1 1 129 1 1 1 1 1 
1 1 1 1 1 1 1 1 129 
1 1 321 1 1 1 1 449 1 
1 1 1 1 1 1 65 65 33 
1 449 1 65 1 1 449 1 1 
385 385 1 1 1 449 1 33 1 
1 1 1 1 481 1 1 1 33 
33 65 449 1 1 1 1 449 449 
1 449 1 1 65 1 1 257 1 
257 449 1 1 1 1 1 1 17 
449 1 449 1 1 1 481 321 1 
451 449 33 385 1 449 33 1 481 
1 1 1 1 1 129 1 1 451 
1 449 449 33 65 65 1 1 1 
1 1 1 451 1 1 1 321 1 
1 1 129 1 449 1 1 1 1 
481 449 449 1 1 449 17 385 1 
1 1 1 1 1 1 1 1 1 
1 385 1 449 33 1 1 257 1 
193 65 1 1 1 1 449 1 1 
1 1 1 1 1 1 449 451 1 
1 1 1 1 1 1 1 1 193 
1 1 1 385 451 65 1 1 1 
1 1 1 449 1 1 1 1 1 
1 129 33 1 1 1 1 1 1 
1 1 1 1 1 1 1 1 1 
449 65 1 385 449 449 1 1 1 
449 321 257 1 1 1 385 1 1 
481 1 1 1 1 1 385 449 1 
1 1 65 65 1 1 65 1 1 
1 449 1 1 1 1 481 449 1 
449 449 1 129 1 65 449 1 1 
1 385 65 1 1 1 1 1 65 
1 1 33 65 1 481 1 65 449 
1 449 129 33 481 1 449 65 1 
1 33 1 1 1 1 65 1 1 
1 65 257 1 1 1 257 1 1 
481 1 449 33 1 449 1 449 1 
1 1 1 449 449 1 1 385 1 
481 1 257 449 449 1 449 129 1 
1 1 257 1 1 1 1 1 1 
1 129 1 1 129 1 1 1 1 
1 65 1 129 449 1 1 1 449 
129 1 1 1 1 1 33 1 1 
1 1 451 449 1 1 449 1 1 
1 1 1 257 1 449 1 1 449 
1 1 1 1 1 1 449 1 1 
449 129 1 17 65 1 449 449 449 
1 193 385 1 1 1 1 1 449 
1 481 1 65 1 33 1 1 1 
449 1 1 1 193 481 1 481 321 
1 451 1 1 1 1 449 1 65 
449 257 1 1 1 1 1 481 481 
193 1 1 65 1 449 1 1 1 
1 1 1 1 1 449 1 257 65 
1 1 1 1 65 1 129 1 449 
1 1 1 1 1 1 1 1 65 
449 1 1 1 481 1 449 1 1 
1 1 1 1 1 257 1 1 1 
1 1 1 1 449 129 1 65 1 
1 1 1 1 1 449 1 1 1 
449 1 1 1 481 481 1 1 1 
257 449 65 1 449 449 257 33 449 
1 449 17 1 1 1 1 1 1 
449 1 1 1 65 1 1 1 1 
1 449 65 1 449 449 1 1 1 
1 1 1 449 1 1 1 257 1 
449 1 65 449 449 451 33 481 1 
65 1 65 1 1 1 1 1 1 
1 1 481 1 1 1 1 1 1 
1 1 1 1 1 449 1 1 1 
1 1 1 129 1 1 1 449 1 
129 1 257 1 449 1 1 449 1 
1 257 449 451 257 1 1 449 1 
1 1 1 257 1 1 1 451 1 
449 1 1 1 193 1 1 1 1 
1 1 1 1 1 1 65 1 1 
1 1 1 1 449 65 1 1 449 
1 481 1 1 65 1 1 129 65 
1 1 1 1 1 1 1 1 1 
1 33 1 449 449 65 385 449 1 
1 1 449 33 1 1 481 1 1 
1 1 1 1 1 1 65 1 1 
1 1 257 257 1 33 65 1 449 
1 1 449 1 1 1 1 449 1 
1 17 1 65 1 65 1 481 1 
1 449 1 449 1 321 1 1 1 
321 1 1 1 257 257 1 1 1 
1 1 1 65 1 1 1 1 65 
1 449 1 129 481 449 33 1 1 
449 1 1 1 1 1 1 1 1 
385 1 449 1 1 65 1 1 1 
1 1 1 1 1 451 1 1 1 
1 1 1 1 129 1 1 385 1 
1 1 1 449 1 449 1 449 1 
321 1 1 193 481 65 449 449 1 
1 1 1 65 1 321 1 1 1 
481 1 1 1 1 449 481 449 1 
1 65 321 449 451 129 65 1 1 
1 449 1 449 1 1 1 1 449 
449 1 1 1 1 385 481 1 1 
1 1 1 1 1 1 33 1 449 
1 481 1 1 33 1 1 65 1 
385 1 1 65 1 1 1 257 449 
449 1 1 1 449 65 1 1 1 
17 1 1 1 1 1 1 33 1 
1 1 65 1 1 1 1 1 1 
1 1 1 1 1 449 65 449 1 
1 257 1 33 1 1 1 1 1 
65 1 257 449 1 1 257 1 1 
129 481 449 65 1 449 1 481 449 
1 1 1 1 33 257 481 1 1 
1 1 1 1 1 1 1 1 1 
1 449 1 1 1 1 1 1 1 
65 1 1 449 1 1 1 1 449 
1 65 481 1 1 1 1 1 1 
1 481 449 1 1 449 1 1 1 
1 1 1 1 129 1 1 257 449 
449 385 1 449 449 449 449 33 481 
1 449 1 1 1 449 449 481 257 
1 1 1 1 193 257 449 1 33 
1 449 449 33 1 385 1 1 1 
1 1 1 33 1 1 1 1 1 
1 1 1 1 65 449 321 1 1 
1 1 65 1 1 1 1 1 1 
1 1 1 1 1 1 1 1 1 
1 193 33 449 1 1 1 1 1 
1 449 33 1 1 449 1 1 1 
1 1 449 65 65 1 1 1 129 
1 1 129 1 481 1 65 129 1 
1 1 129 1 1 1 1 449 1 
449 193 33 481 1 1 1 193 1 
449 1 1 1 1 1 33 1 1 
449 1 1 129 1 129 449 1 1 
1 193 1 1 449 1 1 1 65 
481 33 33 321 1 1 481 1 1 
1 33 1 65 1 1 449 1 1 
1 385 1 1 1 1 1 1 33 
1 257 449 1 1 449 1 1 1 
449 1 1 1 449 65 481 449 1 
65 1 1 1 1 1 449 1 1 
1 1 449 1 65 1 1 1 449 
1 1 1 1 1 321 1 1 1 
449 1 1 1 1 1 1 33 1 
1 1 193 1 1 1 1 1 1 
1 17 449 1 1 481 1 449 65 
449 1 1 1 1 1 1 1 385 
1 449 1 449 1 449 1 1 449 
1 451 1 481 129 33 1 449 1 
1 481 1 449 1 449 1 1 1 
1 321 1 1 1 449 1 449 1 
385 449 1 1 1 1 451 1 1 
1 1 1 1 65 1 1 1 321 
1 1 1 449 1 1 1 1 33 
1 1 1 1 1 1 1 449 1 
1 1 193 1 1 449 1 449 1 
1 1 1 1 1 1 1 1 1 
65 449 1 1 257 449 449 65 1 
1 1 1 1 1 1 1 129 449 
1 1 1 1 1 1 1 1 1 
449 449 449 1 449 321 481 1 1 
321 1 1 65 1 1 449 1 449 
1 1 1 1 1 321 385 1 1 
1 1 1 129 1 1 129 1 1 
1 1 1 1 33 1 1 1 1 
1 1 1 481 1 1 1 449 481 
1 1 1 1 1 1 449 1 1 
385 1 449 1 1 321 1 129 449 
1 1 1 1 1 129 1 451 449 
1 1 1 481 33 1 1 1 1 
449 1 1 65 481 481 1 1 1 
1 1 1 449 449 1 321 1 1 
65 1 65 1 1 1 449 193 1 
449 1 1 1 1 1 1 1 33 
1 1 1 1 65 193 451 65 1 
1 1 65 1 449 1 257 1 1 
65 129 1 1 1 1 1 449 257 
321 449 1 1 1 65 1 1 129 
129 481 65 449 1 449 1 449 1 
1 449 1 33 1 1 1 1 1 
481 1 1 1 1 449 1 1 449 
1 1 1 1 1 1 1 449 1 
449 1 1 1 1 449 1 1 449 
1 1 65 1 33 1 1 449 1 
1 1 1 449 1 1 33 1 1 
1 1 1 1 17 1 449 1 193 
1 1 1 385 1 1 1 257 1 
1 1 1 1 1 1 1 193 1 
1 1 1 1 1 449 1 1 1 
449 1 1 1 1 1 1 1 1 
449 1 1 1 1 1 1 449 1 
449 1 1 1 65 449 1 1 1 
385 1 65 1 1 1 1 1 451 
385 1 1 1 1 1 1 1 1 
1 1 1 481 1 1 1 65 1 
1 1 1 449 65 385 449 451 1 
1 1 1 33 385 449 1 481 1 
1 1 1 1 321 1 257 65 1 
449 1 1 1 1 1 257 257 1 
1 1 1 1 1 65 1 1 449 
1 1 449 33 1 451 1 1 1 
1 1 1 449 33 385 1 1 65 
1 449 257 1 1 449 193 1 1 
1 1 1 1 1 1 1 1 1 
321 1 1 1 257 449 449 449 1 
1 449 1 449 1 1 1 1 1 
65 1 1 1 1 1 1 451 1 
1 449 1 1 65 1 1 449 1 
1 1 1 1 1 449 33 1 449 
65 33 1 257 1 1 481 1 1 
1 1 1 65 257 449 449 65 65 
1 1 1 1 1 449 449 65 1 
1 449 449 449 1 1 1 1 481 
1 481 1 449 33 33 1 1 1 
1 1 1 33 1 193 65 449 1 
1 481 1 1 1 321 1 1 1 
1 449 1 1 65 1 449 1 1 
1 1 1 1 449 65 1 449 1 
1 1 1 1 1 1 1 1 1 
1 1 1 449 1 1 449 193 1 
1 1 65 1 257 449 1 1 33 
1 1 1 449 1 1 33 449 449 
1 1 1 1 449 1 1 1 1 
451 1 1 1 17 1 1 129 1 
1 449 1 65 449 1 1 1 1 
1 1 1 449 1 385 449 1 1 
1 1 1 1 1 193 1 449 1 
1 449 1 481 1 1 481 33 449 
1 33 449 449 1 1 1 451 1 
449 1 1 1 1 1 1 1 65 
193 65 1 1 1 1 449 449 1 
1 1 1 1 1 1 1 1 449 
449 1 33 1 1 1 1 1 1 
449 449 1 1 451 1 449 449 1 
1 1 1 1 1 1 1 1 1 
1 1 1 1 1 257 1 385 33 
65 1 257 449 1 65 1 1 1 
65 1 1 449 1 1 1 1 1 
385 1 1 1 1 1 1 449 451 
1 1 1 65 1 129 1 257 1 
449 481 449 1 449 1 1 1 1 
1 1 1 1 1 1 1 1 1 
1 1 1 1 1 1 385 449 1 
1 1 1 1 1 33 321 1 1 
1 321 481 449 385 1 449 65 1 
1 65 1 1 1 1 1 1 449 
1 1 449 1 1 1 1 449 321 
65 1 1 449 1 481 1 1 1 
1 1 1 1 1 385 481 1 129 
1 1 449 1 1 1 1 1 129 
449 1 1 1 1 1 1 1 449 
1 257 1 1 33 449 1 1 1 
481 481 449 1 1 481 1 1 33 
129 193 33 1 1 65 1 449 1 
1 129 1 449 1 1 449 1 1 
1 1 1 385 1 449 1 1 1 
449 1 385 1 1 1 1 449 1 
1 1 385 1 65 1 1 1 1 
449 1 1 1 1 1 449 129 1 
1 1 481 1 1 1 1 449 449 
1 1 1 1 451 1 129 1 1 
1 1 1 449 65 1 33 449 1 
1 1 65 1 1 449 1 1 1 
1 1 1 193 449 1 481 129 1 
1 1 1 1 1 481 1 33 1 
17 385 1 1 1 1 1 1 257 
33 451 1 1 1 1 1 1 449 
1 193 65 1 1 1 1 1 129 
1 1 449 1 65 1 1 1 1 
449 1 1 449 1 481 1 449 1 
1 1 1 65 449 1 1 1 1 
449 449 1 1 65 1 1 1 1 
65 1 1 65 1 1 65 65 321 
1 1 1 1 1 193 193 65 1 
33 1 1 1 1 1 1 1 1 
1 449 1 1 1 1 1 1 1 
1 129 1 1 1 449 257 65 1 
321 1 449 1 1 1 1 385 65 
1 1 1 1 1 257 1 1 385 
1 33 1 1 1 1 1 1 1 
1 1 1 1 257 1 449 1 321 
1 1 1 1 1 129 1 1 1 
1 1 1 33 449 1 1 1 449 
65 193 1 1 449 449 1 1 1 
449 449 1 449 481 1 1 65 1 
1 1 1 1 1 449 449 1 1 
1 449 1 65 33 129 1 1 1 
65 1 193 257 1 1 449 449 1 
1 449 1 481 449 1 449 1 1 
193 449 1 449 1 1 1 1 1 
1 481 481 1 321 1 1 1 1 
129 385 1 1 1 1 1 129 1 
321 481 321 65 1 1 385 1 1 
1 1 65 1 1 33 1 1 193 
1 33 1 1 1 1 385 481 1 
65 1 1 481 1 1 1 1 1 
449 1 1 1 321 65 33 385 1 
1 65 1 449 129 1 33 1 257 
449 1 1 451 385 1 449 1 1 
1 1 449 449 1 1 449 1 1 
1 1 1 1 449 385 257 1 65 
1 1 449 449 1 449 1 449 1 
1 385 449 1 1 1 257 449 1 
1 1 1 1 1 449 1 1 1 
1 1 1 1 449 1 1 1 1 
449 1 1 1 1 1 1 1 1 
65 65 1 65 1 1 481 449 1 
33 1 1 449 65 1 33 1 65 
1 1 1 65 1 449 129 1 1 
1 1 1 1 1 1 257 1 1 
1 1 1 449 481 1 449 1 1 
1 1 33 1 1 1 1 1 449 
481 1 1 449 1 1 1 1 1 
257 1 449 449 449 1 1 1 33 
1 1 481 1 1 1 1 1 1 
1 449 449 257 129 1 385 1 1 
1 481 1 33 449 1 33 1 1 
1 449 449 33 129 1 449 1 1 
1 1 193 1 385 1 449 1 1 
449 1 449 1 1 1 1 1 1 
1 1 481 449 1 481 1 193 481 
33 449 449 1 1 449 1 1 1 
1 1 449 1 1 1 449 1 1 
1 1 449 1 1 1 1 449 1 
1 1 449 1 1 1 1 449 1 
1 1 1 449 1 65 449 1 1 
33 1 1 1 1 1 1 1 1 
1 1 321 129 1 1 1 1 1 
1 449 449 451 1 1 449 1 449 
1 1 321 1 481 1 449 65 1 
1 1 65 449 1 257 449 1 1 
1 129 1 1 481 1 1 1 481 
1 449 1 1 1 1 1 65 65 
1 257 65 1 1 1 481 481 1 
1 1 1 33 1 1 1 321 1 
449 1 385 1 1 1 1 1 33 
1 1 1 1 1 1 1 1 1 
449 1 1 1 1 1 1 193 1 
1 1 129 1 1 1 1 1 449 
449 1 1 1 1 449 1 33 1 
1 449 1 1 1 129 1 1 1 
1 481 1 449 1 1 321 1 1 
1 1 1 1 1 1 1 1 1 
65 1 1 1 65 1 1 1 385 
1 1 1 1 65 129 1 1 321 
451 449 1 385 129 1 1 481 65 
449 449 1 1 1 1 481 449 449 
1 1 65 1 481 129 1 449 1 
449 449 449 1 1 449 1 1 1 
1 1 129 1 1 1 1 1 1 
1 65 481 1 1 449 1 1 1 
449 1 1 385 1 65 1 1 1 
257 1 1 1 1 1 449 1 1 
1 449 1 1 1 1 1 449 449 
1 1 1 449 1 449 1 33 1 
1 1 1 1 129 257 1 1 1 
1 449 33 1 1 1 1 1 1 
1 449 449 1 1 1 481 1 65 
1 1 449 321 1 1 1 451 1 
1 449 385 65 1 33 449 1 1 
1 1 1 1 65 1 481 65 1 
1 1 1 1 1 1 449 1 1 
1 481 1 1 65 65 1 1 449 
1 481 1 1 1 1 449 33 33 
1 1 1 1 321 1 33 321 1 
257 449 449 449 1 1 129 449 449 
1 449 1 1 193 1 1 1 1 
129 449 129 321 1 1 1 1 1 
449 1 65 481 1 449 1 1 1 
1 1 257 257 1 65 1 481 449 
1 1 193 257 1 1 1 321 1 
1 1 1 449 449 257 257 257 257 
257 257 1 1 1 1 449 1 1 
17 1 449 1 449 1 1 65 1 
449 1 1 321 1 1 1 1 1 
1 1 449 1 1 1 1 1 1 
449 1 481 1 1 1 1 1 1 
1 1 1 1 65 1 1 1 1 
1 129 1 449 1 1 1 481 1 
1 1 257 385 1 1 65 1 1 
321 1 449 33 65 1 1 1 1 
1 1 1 1 449 1 321 385 1 
449 449 1 1 1 1 385 129 1 
1 1 1 1 1 1 449 1 1 
1 1 1 1 449 1 1 129 449 
129 1 449 257 1 1 449 1 385 
1 449 1 385 33 1 1 1 65 
1 1 1 65 1 1 65 1 257 
1 1 1 257 1 1 1 481 1 
449 1 451 1 1 1 1 1 1 
1 65 1 257 1 1 1 449 257 
449 449 1 1 449 1 449 65 1 
1 1 1 1 385 449 1 1 1 
1 1 65 1 1 1 1 1 1 
1 193 1 1 1 1 65 1 1 
449 1 449 33 1 1 1 1 193 
1 193 449 1 1 33 1 1 1 
1 1 1 449 1 65 1 1 1 
1 1 481 1 385 1 1 1 449 
1 1 129 1 33 1 1 481 1 
1 1 129 1 481 1 1 1 1 
1 449 449 1 449 449 1 449 1 
1 449 1 1 1 1 1 129 1 
1 1 1 1 1 449 1 1 257 
1 1 1 1 1 1 129 33 481 
1 481 1 1 1 321 33 33 33 
1 1 1 1 1 1 1 33 1 
1 1 1 1 257 1 1 481 449 
1 1 1 1 33 449 1 449 449 
1 1 1 1 1 449 1 1 1 
1 321 1 1 1 1 1 1 449 
1 451 1 1 1 1 449 1 1 
1 65 65 1 257 1 449 449 1 
1 1 449 65 1 1 321 1 449 
1 1 449 193 33 449 65 1 449 
1 1 1 1 17 1 1 1 1 
1 1 449 129 1 1 193 449 257 
449 1 1 1 1 449 1 1 129 
65 321 129 1 1 1 1 1 1 
1 1 1 451 1 1 1 1 1 
1 1 1 1 1 1 1 1 33 
33 1 1 1 1 1 1 1 1 
481 1 1 1 1 481 1 1 1 
1 1 1 449 65 1 1 1 1 
1 65 65 1 33 1 1 1 1 
1 449 449 449 481 1 1 65 1 
1 1 17 481 65 449 449 449 449 
1 1 1 65 1 1 1 193 1 
1 1 1 321 449 1 1 1 481 
1 129 1 481 1 65 1 1 1 
1 1 449 1 257 1 449 65 385 
1 1 1 1 1 1 449 1 1 
1 1 1 1 1 1 1 481 1 
257 449 321 1 65 449 1 449 385 
1 1 1 1 65 257 1 1 1 
449 1 1 1 449 1 1 449 449 
449 1 1 1 449 449 1 129 129 
129 257 1 33 33 33 1 1 1 
1 33 33 1 1 481 1 1 1 
1 449 1 449 193 1 1 449 1 
1 1 449 33 449 1 449 33 1 
1 65 1 481 65 1 449 1 449 
33 1 481 1 1 1 33 1 1 
481 1 1 1 1 1 1 1 1 
1 1 1 1 1 257 1 1 33 
33 33 33 65 1 1 1 1 33 
1 1 1 1 33 1 1 33 1 
449 449 1 1 1 1 1 1 449 
1 1 1 1 1 1 481 1 1 
1 1 257 1 1 1 193 1 449 
33 321 449 33 449 1 1 481 481 
1 1 1 1 1 1 1 65 33 
1 1 1 1 449 1 1 1 1 
1 449 1 1 449 1 1 1 1 
1 1 449 1 1 1 193 193 193 
193 1 1 1 193 257 65 193 1 
1 1 449 33 1 1 33 33 1 
33 1 1 1 449 1 1 1 1 
1 1 1 1 1 1 1 193 449 
1 1 193 1 1 1 33 33 1 
129 1 129 481 1 1 1 1 1 
1 257 1 1 321 1 1 1 385 
1 481 385 65 1 1 321 1 1 
1 65 1 1 1 1 449 481 129 
1 449 1 1 1 33 1 449 1 
1 449 1 481 449 1 1 33 33 
1 1 1 449 1 1 1 451 129 
449 193 1 449 1 1 1 1 1 
1 449 1 449 129 449 129 1 1 
449 385 1 65 449 1 1 1 1 
385 1 481 65 1 449 1 1 1 
1 1 1 1 1 1 129 1 1 
1 1 1 1 65 449 1 1 481 
481 449 1 1 1 449 1 1 1 
1 65 1 1 1 1 449 129 1 
129 1 1 449 449 1 1 1 1 
481 1 1 449 1 1 1 1 65 
1 1 1 65 65 1 1 1 1 
129 449 1 449 1 1 1 1 1 
1 1 1 449 65 1 1 1 449 