<?xml version="1.0"?>
<VTKFile type="PolyData" version="0.1" byte_order="LittleEndian" compressor="vtkZLibDataCompressor">
  <PolyData>
    <Piece NumberOfPoints="513" NumberOfVerts="0" NumberOfLines="1" NumberOfStrips="0" NumberOfPolys="0">
      <PointData>
        <DataArray type="Int32" Name="VertexIDs" format="ascii" RangeMin="0" RangeMax="16">
          0 16 16 16 16 16
          16 16 16 16 16 16
          16 16 16 16 16 16
          16 16 16 16 16 16
          16 16 16 16 16 16
          16 16 1 16 16 16
          16 16 16 16 16 16
          16 16 16 16 16 16
          16 16 16 16 16 16
          16 16 16 16 16 16
          16 16 16 16 2 16
          16 16 16 16 16 16
          16 16 16 16 16 16
          16 16 16 16 16 16
          16 16 16 16 16 16
          16 16 16 16 16 16
          3 16 16 16 16 16
          16 16 16 16 16 16
          16 16 16 16 16 16
          16 16 16 16 16 16
          16 16 16 16 16 16
          16 16 4 16 16 16
          16 16 16 16 16 16
          16 16 16 16 16 16
          16 16 16 16 16 16
          16 16 16 16 16 16
          16 16 16 16 5 16
          16 16 16 16 16 16
          16 16 16 16 16 16
          16 16 16 16 16 16
          16 16 16 16 16 16
          16 16 16 16 16 16
          6 16 16 16 16 16
          16 16 16 16 16 16
          16 16 16 16 16 16
          16 16 16 16 16 16
          16 16 16 16 16 16
          16 16 7 16 16 16
          16 16 16 16 16 16
          16 16 16 16 16 16
          16 16 16 16 16 16
          16 16 16 16 16 16
          16 16 16 16 8 16
          16 16 16 16 16 16
          16 16 16 16 16 16
          16 16 16 16 16 16
          16 16 16 16 16 16
          16 16 16 16 16 16
          9 16 16 16 16 16
          16 16 16 16 16 16
          16 16 16 16 16 16
          16 16 16 16 16 16
          16 16 16 16 16 16
          16 16 10 16 16 16
          16 16 16 16 16 16
          16 16 16 16 16 16
          16 16 16 16 16 16
          16 16 16 16 16 16
          16 16 16 16 11 16
          16 16 16 16 16 16
          16 16 16 16 16 16
          16 16 16 16 16 16
          16 16 16 16 16 16
          16 16 16 16 16 16
          12 16 16 16 16 16
          16 16 16 16 16 16
          16 16 16 16 16 16
          16 16 16 16 16 16
          16 16 16 16 16 16
          16 16 13 16 16 16
          16 16 16 16 16 16
          16 16 16 16 16 16
          16 16 16 16 16 16
          16 16 16 16 16 16
          16 16 16 16 14 16
          16 16 16 16 16 16
          16 16 16 16 16 16
          16 16 16 16 16 16
          16 16 16 16 16 16
          16 16 16 16 16 16
          15 16 16 16 16 16
          16 16 16 16 16 16
          16 16 16 16 16 16
          16 16 16 16 16 16
          16 16 16 16 16 16
          16 16 0
        </DataArray>
      </PointData>
      <CellData>
      </CellData>
      <Points>
        <DataArray type="Float32" Name="Points" NumberOfComponents="3" format="ascii" RangeMin="70.829383646" RangeMax="93.137693487">
          54.61806488 59.592906952 35.06962204 54.802700043 59.654037476 35.047065735
          54.98260498 59.708042145 35.028026581 55.159137726 59.756229401 35.011676788
          55.332714081 59.79901886 34.997749329 55.504211426 59.837268829 34.985702515
          55.673553467 59.870990753 34.975547791 55.840778351 59.900291443 34.967224121
          56.006393433 59.925731659 34.960403442 56.171005249 59.948005676 34.954677582
          56.334350586 59.966827393 34.950191498 56.496353149 59.982120514 34.946979523
          56.657024384 59.993965149 34.944992065 56.816230774 60.002307892 34.944282532
          56.97436142 60.007453918 34.944610596 57.131633759 60.009613037 34.945831299
          57.288440704 60.009025574 34.947723389 57.445449829 60.006038666 34.949932098
          57.602069855 60.000534058 34.952693939 57.757957458 59.992477417 34.956134796
          57.913021088 59.981967926 34.96024704 58.067050934 59.969093323 34.965076447
          58.220081329 59.953861237 34.970584869 58.372119904 59.936351776 34.976741791
          58.523040771 59.916461945 34.983596802 58.672691345 59.893955231 34.991233826
          58.821174622 59.869338989 34.99949646 58.968536377 59.843002319 35.00825882
          59.114784241 59.815040588 35.017482758 59.259975433 59.785518646 35.027111053
          59.404029846 59.754940033 35.037052155 59.546920776 59.723560333 35.047241211
          59.688579559 59.692165375 35.057518005 59.828884125 59.662033081 35.067646027
          59.967967987 59.631931305 35.07780838 60.10590744 59.601119995 35.088119507
          60.242733002 59.569377899 35.09859848 60.378505707 59.536235809 35.109302521
          60.513221741 59.501689911 35.12020874 60.646896362 59.465702057 35.13130188
          60.779560089 59.427944183 35.142612457 60.911262512 59.388008118 35.154174805
          61.041988373 59.346115112 35.165950775 61.171749115 59.302349091 35.177909851
          61.300552368 59.25668335 35.190036774 61.428401947 59.209163666 35.202301025
          61.55532074 59.159664154 35.214717865 61.681335449 59.108104706 35.227283478
          61.806472778 59.054428101 35.240020752 61.930778503 58.998573303 35.252960205
          62.054225922 58.940486908 35.266036987 62.176811218 58.880134583 35.279205322
          62.298534393 58.817432404 35.292442322 62.419395447 58.75226593 35.305713654
          62.539402008 58.684677124 35.319004059 62.658561707 58.614639282 35.332286835
          62.776878357 58.542243958 35.345542908 62.894355774 58.467704773 35.358734131
          63.011005402 58.390617371 35.371852875 63.126838684 58.310668945 35.38489151
          63.241859436 58.227813721 35.397838593 63.356086731 58.142055511 35.410675049
          63.469520569 58.052932739 35.423381805 63.582164764 57.960231781 35.435947418
          63.694026947 57.863239288 35.448356628 63.805103302 57.760757446 35.460605621
          63.915412903 57.654018402 35.472660065 64.024971008 57.543785095 35.48449707
          64.133796692 57.430316925 35.49609375 64.241882324 57.314117432 35.507434845
          64.349258423 57.195217133 35.518489838 64.455932617 57.073696136 35.529243469
          64.561912537 56.949901581 35.539669037 64.667236328 56.824249268 35.549728394
          64.771888733 56.696594238 35.559421539 64.875869751 56.566921234 35.568740845
          64.979179382 56.435295105 35.577667236 65.081848145 56.301712036 35.586177826
          65.18384552 56.166366577 35.594268799 65.285186768 56.029396057 35.601928711
          65.385848999 55.890953064 35.609161377 65.485778809 55.751239777 35.615989685
          65.58505249 55.610229492 35.622344971 65.68372345 55.467941284 35.628181458
          65.781814575 55.324459076 35.633460999 65.879379272 55.179859161 35.638134003
          65.976409912 55.034179688 35.642192841 66.072914124 54.887477875 35.645614624
          66.168899536 54.739723206 35.648391724 66.264350891 54.590805054 35.650531769
          66.359321594 54.441040039 35.651954651 66.453895569 54.290687561 35.652606964
          66.548072815 54.139827728 35.652462006 66.641868591 53.988517761 35.651508331
          66.735366821 53.837078094 35.649650574 66.828636169 53.685695648 35.646842957
          66.921813965 53.534858704 35.642948151 67.015167236 53.385372162 35.637752533
          67.108436584 53.236503601 35.631446838 67.201477051 53.087833405 35.624134064
          67.294235229 52.939247131 35.615844727 67.386611938 52.790466309 35.606655121
          67.478614807 52.641532898 35.596534729 67.570236206 52.492443085 35.585483551
          67.661422729 52.343044281 35.573524475 67.752120972 52.193149567 35.560676575
          67.842323303 52.042858124 35.54693985 67.932037354 51.892215729 35.532325745
          68.021240234 51.741230011 35.51682663 68.109947205 51.589954376 35.500423431
          68.198097229 51.438282013 35.48317337 68.285652161 51.286159515 35.465103149
          68.372528076 51.133491516 35.446296692 68.458595276 50.980102539 35.4269104
          68.54397583 50.826164246 35.406764984 68.628738403 50.671772003 35.385761261
          68.712898254 50.516963959 35.363845825 68.796516418 50.361801147 35.340923309
          68.879570007 50.206283569 35.317016602 68.962043762 50.050430298 35.292118073
          69.043945313 49.894287109 35.266223907 69.125259399 49.737930298 35.239364624
          69.20602417 49.581310272 35.211433411 69.286277771 49.42440033 35.182331085
          69.366020203 49.267204285 35.152046204 69.445228577 49.109725952 35.12059021
          69.523994446 48.951953888 35.087791443 69.602348328 48.793895721 35.053565979
          69.680435181 48.635513306 35.017650604 69.758476257 48.47674942 34.979614258
          69.836227417 48.317691803 34.939907074 69.913505554 48.158401489 34.898799896
          69.990257263 47.998897552 34.856391907 70.066375732 47.839229584 34.812866211
          70.141838074 47.679412842 34.768230438 70.216621399 47.519458771 34.722518921
          70.290649414 47.359405518 34.6758461 70.363838196 47.199287415 34.628368378
          70.436187744 47.039108276 34.580036163 70.507698059 46.878883362 34.530845642
          70.578346252 46.718624115 34.480815887 70.648109436 46.558345795 34.429954529
          70.716949463 46.398071289 34.378330231 70.784812927 46.237823486 34.326000214
          70.851646423 46.077625275 34.273029327 70.917381287 45.917503357 34.219509125
          70.982025146 45.757465363 34.165409088 71.045600891 45.597522736 34.110721588
          71.108078003 45.437690735 34.055473328 71.169448853 45.277988434 33.999675751
          71.229705811 45.118427277 33.943347931 71.28881073 44.959022522 33.886512756
          71.346755981 44.799789429 33.829158783 71.403556824 44.640731812 33.771251678
          71.459159851 44.481876373 33.71289444 71.513519287 44.323249817 33.654155731
          71.566619873 44.164871216 33.595069885 71.618431091 44.006755829 33.535652161
          71.668922424 43.848930359 33.475997925 71.718070984 43.691417694 33.416156769
          71.765815735 43.534248352 33.356262207 71.812103271 43.377475739 33.296527863
          71.856956482 43.221076965 33.23677063 71.900375366 43.065052032 33.176887512
          71.942359924 42.90940094 33.116855621 71.982894897 42.754123688 33.056621552
          72.021965027 42.599243164 32.996181488 72.059555054 42.444778442 32.935546875
          72.09563446 42.290740967 32.874660492 72.130187988 42.137172699 32.81344986
          72.163215637 41.984050751 32.751987457 72.194702148 41.831367493 32.690326691
          72.224632263 41.679134369 32.62846756 72.252983093 41.527378082 32.566421509
          72.279762268 41.376064301 32.50422287 72.304962158 41.225189209 32.441879272
          72.328613281 41.074699402 32.379447937 72.350769043 40.924484253 32.31703186
          72.371330261 40.774692535 32.254520416 72.390228271 40.625419617 32.191856384
          72.407409668 40.476722717 32.129001617 72.422821045 40.328689575 32.065883636
          72.436454773 40.181312561 32.002548218 72.448287964 40.034599304 31.938999176
          72.458305359 39.888557434 31.875272751 72.466529846 39.743144989 31.81146431
          72.472862244 39.598495483 31.74741745 72.477226257 39.454723358 31.683004379
          72.479606628 39.311847687 31.618227005 72.479995728 39.169868469 31.553108215
          72.478263855 39.028972626 31.487436295 72.474342346 38.889259338 31.42111969
          72.468063354 38.751003265 31.353824615 72.459144592 38.614688873 31.284978867
          72.447845459 38.479831696 31.215208054 72.434318542 38.34614563 31.14490509
          72.418609619 38.213542938 31.074214935 72.400810242 38.081840515 31.003404617
          72.38092041 37.951019287 30.932504654 72.358955383 37.821060181 30.861572266
          72.334983826 37.691818237 30.790792465 72.309135437 37.563129425 30.72038269
          72.281303406 37.435070038 30.650297165 72.251441956 37.307678223 30.58054924
          72.219551086 37.180934906 30.511188507 72.185623169 37.054847717 30.442228317
          72.149635315 36.92937088 30.373790741 72.111579895 36.804473877 30.305963516
          72.071388245 36.680149078 30.238851547 72.028945923 36.556415558 30.172592163
          71.984405518 36.433185577 30.107170105 71.937850952 36.310413361 30.042593002
          71.889343262 36.188034058 29.978912354 71.838989258 36.06596756 29.916172028
          71.786735535 35.944236755 29.854408264 71.732597351 35.822811127 29.793670654
          71.676521301 35.701732635 29.73396492 71.618400574 35.581085205 29.675260544
          71.558448792 35.460666656 29.617710114 71.49684906 35.340301514 29.561439514
          71.433616638 35.219963074 29.506504059 71.368721008 35.099651337 29.452951431
          71.302459717 34.979110718 29.400924683 71.234970093 34.858219147 29.350517273
          71.1667099 34.736587524 29.301937103 71.098457336 34.613567352 29.255506516
          71.029380798 34.489818573 29.210979462 70.958953857 34.3657341 29.168224335
          70.887016296 34.241451263 29.127216339 70.81325531 34.117259979 29.087862015
          70.737571716 33.99312973 29.050226212 70.659889221 33.869098663 29.014339447
          70.579872131 33.745288849 28.980203629 70.497070313 33.621841431 28.94783783
          70.411781311 33.498779297 28.917224884 70.324150085 33.376167297 28.888336182
          70.23412323 33.25402832 28.86120224 70.141647339 33.132335663 28.835884094
          70.046829224 33.011310577 28.812265396 69.949661255 32.891078949 28.790313721
          69.85043335 32.771911621 28.769849777 69.749687195 32.654270172 28.750551224
          69.646636963 32.537734985 28.732826233 69.540794373 32.422058105 28.716932297
          69.43183136 32.307151794 28.703008652 69.319190979 32.192806244 28.691299438
          69.203033447 32.079116821 28.681760788 69.083274841 31.966104507 28.674425125
          68.960021973 31.853797913 28.669298172 68.833686829 31.742307663 28.666292191
          68.703269958 31.631404877 28.665721893 68.567970276 31.520896912 28.667861938
          68.427658081 31.410791397 28.672761917 68.282394409 31.301166534 28.680400848
          68.130844116 31.191623688 28.691251755 67.972366333 31.08199501 28.705545425
          67.80493927 30.971670151 28.723983765 67.6251297 30.859592438 28.747745514
          67.436485291 30.746938705 28.775636673 67.241142273 30.63444519 28.806936264
          67.039848328 30.522378922 28.841400146 66.834014893 30.411226273 28.878545761
          66.623748779 30.301084518 28.918363571 66.409286499 30.192087173 28.960788727
          66.191604614 30.084634781 29.005514145 65.97190094 29.979242325 29.052175522
          65.749763489 29.875705719 29.100885391 65.525093079 29.773952484 29.151649475
          65.298095703 29.674091339 29.204414368 65.068756104 29.576177597 29.259202957
          64.837585449 29.480287552 29.315797806 64.60496521 29.386533737 29.374059677
          64.371276855 29.29486084 29.4337883 64.137001038 29.205097198 29.494680405
          63.902172089 29.117713928 29.556901932 63.666889191 29.033039093 29.62053299
          63.431419373 28.951343536 29.685541153 63.196060181 28.873018265 29.751941681
          62.960865021 28.798028946 29.819690704 62.726013184 28.726486206 29.888736725
          62.491413116 28.658346176 29.959106445 62.256679535 28.59333992 30.030866623
          62.022823334 28.532249451 30.103843689 61.790660858 28.475715637 30.177906036
          61.560417175 28.423881531 30.252996445 61.332237244 28.376781464 30.329053879
          61.107189178 28.335393906 30.405960083 60.885852814 28.300216675 30.483631134
          60.669849396 28.272722244 30.561882019 60.461811066 28.255348206 30.640432358
          60.259277344 28.245697021 30.719488144 60.06080246 28.242334366 30.799156189
          59.865959167 28.244794846 30.879449844 59.673797607 28.252128601 30.960432053
          59.484420776 28.264356613 31.042060852 59.297798157 28.281381607 31.124307632
          59.11341095 28.302625656 31.20718956 58.930633545 28.3273983 31.290725708
          58.749732971 28.355937958 31.374874115 58.570766449 28.388282776 31.459608078
          58.393730164 28.424360275 31.544898987 58.218780518 28.464252472 31.63069725
          58.045467377 28.50753212 31.717033386 57.873558044 28.553939819 31.80390358
          57.702571869 28.603059769 31.891345978 57.531703949 28.654241562 31.979448318
          57.36170578 28.707941055 32.068065643 57.193027496 28.764400482 32.157096863
          57.025802612 28.823619843 32.246486664 56.860343933 28.885713577 32.336151123
          56.696590424 28.9506073 32.426071167 56.534549713 29.018238068 32.516223907
          56.374340057 29.088685989 32.606567383 56.216075897 29.162084579 32.69708252
          56.059776306 29.238195419 32.787693024 55.905498505 29.316850662 32.878334045
          55.753238678 29.397972107 32.968971252 55.602935791 29.481464386 33.059585571
          55.454841614 29.56722641 33.150062561 55.309070587 29.655179977 33.240337372
          55.165962219 29.74515152 33.330253601 55.0260849 29.836889267 33.419570923
          54.888839722 29.9305439 33.508480072 54.753864288 30.026182175 33.59709549
          54.621032715 30.123804092 33.685436249 54.490104675 30.223443985 33.773555756
          54.361061096 30.325040817 33.861442566 54.233852386 30.428543091 33.949081421
          54.108306885 30.533931732 34.036521912 53.984218597 30.641162872 34.123817444
          53.861663818 30.750232697 34.210899353 53.740653992 30.861131668 34.297729492
          53.6211586 30.973817825 34.384288788 53.503173828 31.088222504 34.470554352
          53.386619568 31.204404831 34.55651474 53.271430969 31.322364807 34.642158508
          53.157558441 31.442203522 34.727455139 53.044952393 31.564126968 34.812355042
          52.933563232 31.687818527 34.896892548 52.823356628 31.813079834 34.981079102
          52.71427536 31.939785004 35.064929962 52.606239319 32.067741394 35.148464203
          52.499248505 32.196956635 35.231651306 52.393268585 32.327381134 35.314472198
          52.288314819 32.45898819 35.396888733 52.184467316 32.591819763 35.47882843
          52.081512451 32.725624084 35.560379028 51.979293823 32.860191345 35.641613007
          51.877761841 32.995456696 35.722518921 51.776893616 33.131416321 35.803077698
          51.676460266 33.267715454 35.883403778 51.576347351 33.404163361 35.963546753
          51.476200104 33.540245056 36.043704987 51.375461578 33.675109863 36.124221802
          51.274662018 33.809574127 36.20470047 51.174125671 33.9441185 36.284877777
          51.073944092 34.078887939 36.364658356 50.974330902 34.214195251 36.443878174
          50.875267029 34.350028992 36.52248764 50.776763916 34.486419678 36.60043335
          50.678936005 34.623561859 36.677558899 50.581924438 34.761722565 36.753677368
          50.485675812 34.900760651 36.828861237 50.390182495 35.040630341 36.903144836
          50.295459747 35.181339264 36.976482391 50.201465607 35.322860718 37.048843384
          50.108314514 35.46528244 37.120220184 50.01606369 35.608665466 37.190570831
          49.924823761 35.753067017 37.25994873 49.834789276 35.898571014 37.328472137
          49.74578476 36.045158386 37.395896912 49.657714844 36.192817688 37.462055206
          49.570545197 36.341587067 37.526828766 49.484210968 36.491500854 37.59003067
          49.398731232 36.642539978 37.651679993 49.314109802 36.794723511 37.711727142
          49.230323792 36.947990417 37.770195007 49.147361755 37.102222443 37.827194214
          49.06521225 37.25762558 37.882381439 48.983856201 37.414367676 37.935470581
          48.903297424 37.572471619 37.986404419 48.823558807 37.731941223 38.035171509
          48.744571686 37.893001556 38.081325531 48.666305542 38.055755615 38.124649048
          48.588665009 38.220569611 38.164470673 48.511486053 38.388038635 38.199687958
          48.434951782 38.557544708 38.231391907 48.359176636 38.728702545 38.260238647
          48.284202576 38.901382446 38.286445618 48.210121155 39.075328827 38.310440063
          48.136928558 39.250530243 38.332221985 48.064640045 39.426940918 38.351840973
          47.993289948 39.604400635 38.369560242 47.922908783 39.782711029 38.385704041
          47.853527069 39.961921692 38.400161743 47.785182953 40.142032623 38.412914276
          47.717891693 40.323013306 38.423995972 47.65165329 40.504859924 38.433376312
          47.586551666 40.687469482 38.441242218 47.522632599 40.870754242 38.447715759
          47.460014343 41.054607391 38.452976227 47.39888382 41.238883972 38.457302094
          47.339069366 41.423648834 38.460514069 47.280479431 41.608924866 38.46251297
          47.223075867 41.794692993 38.463314056 47.16676712 41.980945587 38.462882996
          47.111606598 42.16765213 38.461250305 47.057601929 42.354785919 38.458446503
          47.004779816 42.542346954 38.454437256 46.953205109 42.730373383 38.4491539
          46.902759552 42.918758392 38.44272995 46.853347778 43.107414246 38.435264587
          46.804981232 43.296310425 38.426795959 46.757694244 43.485404968 38.417369843
          46.711296082 43.674617767 38.407066345 46.665710449 43.863891602 38.395935059
          46.620643616 44.053104401 38.384109497 46.575588226 44.242061615 38.37179184
          46.5311203 44.430908203 38.358825684 46.487586975 44.61971283 38.345127106
          46.445129395 44.808490753 38.330684662 46.403995514 44.997272491 38.315452576
          46.364219666 45.186038971 38.299449921 46.32585907 45.374778748 38.2827034
          46.289093018 45.563503265 38.265193939 46.254131317 45.752254486 38.246910095
          46.220924377 45.940971375 38.227874756 46.189487457 46.129627228 38.208095551
          46.159873962 46.318202972 38.187583923 46.132102966 46.506668091 38.166381836
          46.106273651 46.695014954 38.144447327 46.08247757 46.883235931 38.121780396
          46.060787201 47.071311951 38.098331451 46.041309357 47.259231567 38.074005127
          46.024066925 47.446979523 38.048934937 46.009094238 47.634536743 38.023208618
          45.996459961 47.821895599 37.996868134 45.986228943 48.009048462 37.969989777
          45.978431702 48.195968628 37.942577362 45.973121643 48.382633209 37.914649963
          45.970306396 48.569011688 37.886222839 45.969944 48.755054474 37.857292175
          45.972221375 48.940792084 37.827941895 45.977279663 49.126239777 37.798236847
          45.985179901 49.311389923 37.768203735 45.99596405 49.496212006 37.73784256
          46.009822845 49.680751801 37.707279205 46.026859283 49.865009308 37.676574707
          46.047355652 50.049064636 37.645900726 46.071723938 50.233058929 37.615539551
          46.099617004 50.416793823 37.585227966 46.130844116 50.600154877 37.554813385
          46.165351868 50.78307724 37.524250031 46.202976227 50.965461731 37.493453979
          46.24382019 51.147296906 37.462417603 46.287914276 51.328556061 37.431129456
          46.335273743 51.50919342 37.399505615 46.385982513 51.689178467 37.367435455
          46.439910889 51.86844635 37.335006714 46.496952057 52.04693222 37.302276611
          46.557132721 52.224617004 37.269245148 46.62053299 52.401477814 37.235916138
          46.686889648 52.577404022 37.202316284 46.756095886 52.752323151 37.168457031
          46.827747345 52.926086426 37.134410858 46.901115417 53.098453522 37.10030365
          46.977050781 53.269618988 37.065975189 47.056064606 53.439689636 37.031326294
          47.138435364 53.608703613 36.996292114 47.224662781 53.776760101 36.96075058
          47.314605713 53.943786621 36.924755096 47.408298492 54.10975647 36.888298035
          47.505695343 54.274623871 36.851425171 47.606529236 54.438285828 36.814258575
          47.711509705 54.600891113 36.776557922 47.821235657 54.762550354 36.738136292
          47.935779572 54.92325592 36.698974609 48.05506134 55.082939148 36.659095764
          48.18013382 55.241844177 36.618190765 48.311489105 55.400066376 36.57610321
          48.450717926 55.557979584 36.532352448 48.600517273 55.716255188 36.486095428
          48.758068085 55.874118805 36.438224792 48.921649933 56.031082153 36.389293671
          49.090656281 56.186958313 36.339492798 49.263950348 56.341434479 36.28918457
          49.441425323 56.494415283 36.238418579 49.622875214 56.645797729 36.187271118
          49.807495117 56.79529953 36.13602829 49.994293213 56.942527771 36.085041046
          50.183612823 57.087654114 36.034168243 50.375522614 57.230739594 35.983356476
          50.569854736 57.371700287 35.932670593 50.766597748 57.510475159 35.882133484
          50.96534729 57.647060394 35.831825256 51.165802002 57.7813797 35.781829834
          51.367694855 57.913547516 35.732147217 51.570705414 58.043804169 35.682743073
          51.774700165 58.171665192 35.633834839 51.97951889 58.296806335 35.585578918
          52.184894562 58.418983459 35.538131714 52.390529633 58.537830353 35.491691589
          52.596378326 58.653396606 35.446243286 52.802276611 58.765590668 35.401855469
          53.008293152 58.874443054 35.35848999 53.214759827 58.980190277 35.315975189
          53.420761108 59.08215332 35.274776459 53.62556076 59.179775238 35.235263824
          53.82894516 59.272930145 35.197528839 54.03080368 59.361614227 35.161590576
          54.230133057 59.444942474 35.128005981 54.426387787 59.522480011 35.097068787
          54.61806488 59.592906952 35.06962204
        </DataArray>
      </Points>
      <Verts>
        <DataArray type="Int64" Name="connectivity" format="ascii" RangeMin="0" RangeMax="512">
        </DataArray>
        <DataArray type="Int64" Name="offsets" format="ascii" RangeMin="513" RangeMax="513">
        </DataArray>
      </Verts>
      <Lines>
        <DataArray type="Int64" Name="connectivity" format="ascii" RangeMin="0" RangeMax="512">
          0 1 2 3 4 5
          6 7 8 9 10 11
          12 13 14 15 16 17
          18 19 20 21 22 23
          24 25 26 27 28 29
          30 31 32 33 34 35
          36 37 38 39 40 41
          42 43 44 45 46 47
          48 49 50 51 52 53
          54 55 56 57 58 59
          60 61 62 63 64 65
          66 67 68 69 70 71
          72 73 74 75 76 77
          78 79 80 81 82 83
          84 85 86 87 88 89
          90 91 92 93 94 95
          96 97 98 99 100 101
          102 103 104 105 106 107
          108 109 110 111 112 113
          114 115 116 117 118 119
          120 121 122 123 124 125
          126 127 128 129 130 131
          132 133 134 135 136 137
          138 139 140 141 142 143
          144 145 146 147 148 149
          150 151 152 153 154 155
          156 157 158 159 160 161
          162 163 164 165 166 167
          168 169 170 171 172 173
          174 175 176 177 178 179
          180 181 182 183 184 185
          186 187 188 189 190 191
          192 193 194 195 196 197
          198 199 200 201 202 203
          204 205 206 207 208 209
          210 211 212 213 214 215
          216 217 218 219 220 221
          222 223 224 225 226 227
          228 229 230 231 232 233
          234 235 236 237 238 239
          240 241 242 243 244 245
          246 247 248 249 250 251
          252 253 254 255 256 257
          258 259 260 261 262 263
          264 265 266 267 268 269
          270 271 272 273 274 275
          276 277 278 279 280 281
          282 283 284 285 286 287
          288 289 290 291 292 293
          294 295 296 297 298 299
          300 301 302 303 304 305
          306 307 308 309 310 311
          312 313 314 315 316 317
          318 319 320 321 322 323
          324 325 326 327 328 329
          330 331 332 333 334 335
          336 337 338 339 340 341
          342 343 344 345 346 347
          348 349 350 351 352 353
          354 355 356 357 358 359
          360 361 362 363 364 365
          366 367 368 369 370 371
          372 373 374 375 376 377
          378 379 380 381 382 383
          384 385 386 387 388 389
          390 391 392 393 394 395
          396 397 398 399 400 401
          402 403 404 405 406 407
          408 409 410 411 412 413
          414 415 416 417 418 419
          420 421 422 423 424 425
          426 427 428 429 430 431
          432 433 434 435 436 437
          438 439 440 441 442 443
          444 445 446 447 448 449
          450 451 452 453 454 455
          456 457 458 459 460 461
          462 463 464 465 466 467
          468 469 470 471 472 473
          474 475 476 477 478 479
          480 481 482 483 484 485
          486 487 488 489 490 491
          492 493 494 495 496 497
          498 499 500 501 502 503
          504 505 506 507 508 509
          510 511 512
        </DataArray>
        <DataArray type="Int64" Name="offsets" format="ascii" RangeMin="513" RangeMax="513">
          513
        </DataArray>
      </Lines>
      <Strips>
        <DataArray type="Int64" Name="connectivity" format="ascii" RangeMin="0" RangeMax="512">
        </DataArray>
        <DataArray type="Int64" Name="offsets" format="ascii" RangeMin="513" RangeMax="513">
        </DataArray>
      </Strips>
      <Polys>
        <DataArray type="Int64" Name="connectivity" format="ascii" RangeMin="0" RangeMax="512">
        </DataArray>
        <DataArray type="Int64" Name="offsets" format="ascii" RangeMin="513" RangeMax="513">
        </DataArray>
      </Polys>
    </Piece>
  </PolyData>
</VTKFile>
