<?xml version="1.0"?>
<VTKFile type="PolyData" version="0.1" byte_order="LittleEndian" compressor="vtkZLibDataCompressor">
  <PolyData>
    <Piece NumberOfPoints="2500" NumberOfVerts="0" NumberOfLines="0" NumberOfStrips="0" NumberOfPolys="4700">
      <PointData>
        <DataArray type="Int32" Name="VertexIDs" format="ascii" RangeMin="0" RangeMax="18">
          0 17 17 17 17 17
          17 17 17 17 17 17
          17 17 17 17 17 17
          17 17 17 17 17 17
          17 17 17 17 17 17
          17 17 17 17 17 17
          17 17 17 17 17 17
          17 17 17 17 17 17
          17 17 16 17 17 17
          17 17 17 17 17 17
          17 17 17 17 17 17
          17 17 17 17 17 17
          17 17 17 17 17 17
          17 17 17 17 17 17
          17 17 17 17 17 17
          17 17 17 17 17 17
          17 17 17 17 16 17
          17 17 17 17 17 17
          17 17 17 17 17 17
          17 17 17 17 17 17
          17 17 17 17 17 17
          17 17 17 17 17 17
          17 17 17 17 17 17
          17 17 17 17 17 17
          17 17 17 17 17 17
          1 17 17 17 17 17
          17 17 17 17 17 17
          17 17 17 17 17 17
          17 17 17 17 17 17
          17 17 17 17 17 17
          17 17 17 17 17 17
          17 17 17 17 17 17
          17 17 17 17 17 17
          17 17 16 17 17 17
          17 17 17 17 17 17
          17 17 17 17 17 17
          17 17 17 17 17 17
          17 17 17 17 17 17
          17 17 17 17 17 17
          17 17 17 17 17 17
          17 17 17 17 17 17
          17 17 17 17 16 17
          17 17 17 17 17 17
          17 17 17 17 17 17
          17 17 17 17 17 17
          17 17 17 17 17 17
          17 17 17 17 17 17
          17 17 17 17 17 17
          17 17 17 17 17 17
          17 17 17 17 17 17
          2 17 17 17 17 17
          17 17 17 17 17 17
          17 17 17 17 17 17
          17 17 17 17 17 17
          17 17 17 17 17 17
          17 17 17 17 17 17
          17 17 17 17 17 17
          17 17 17 17 17 17
          17 17 16 17 17 17
          17 17 17 17 17 17
          17 17 17 17 17 17
          17 17 17 17 17 17
          17 17 17 17 17 17
          17 17 17 17 17 17
          17 17 17 17 17 17
          17 17 17 17 17 17
          17 17 17 17 16 17
          17 17 17 17 17 17
          17 17 17 17 17 17
          17 17 17 17 17 17
          17 17 17 17 17 17
          17 17 17 17 17 17
          17 17 17 17 17 17
          17 17 17 17 17 17
          17 17 17 17 17 17
          3 17 17 17 17 17
          17 17 17 17 17 17
          17 17 17 17 17 17
          17 17 17 17 17 17
          17 17 17 17 17 17
          17 17 17 17 17 17
          17 17 17 17 17 17
          17 17 17 17 17 17
          17 17 16 17 17 17
          17 17 17 17 17 17
          17 17 17 17 17 17
          17 17 17 17 17 17
          17 17 17 17 17 17
          17 17 17 17 17 17
          17 17 17 17 17 17
          17 17 17 17 17 17
          17 17 17 17 16 17
          17 17 17 17 17 17
          17 17 17 17 17 17
          17 17 17 17 17 17
          17 17 17 17 17 17
          17 17 17 17 17 17
          17 17 17 17 17 17
          17 17 17 17 17 17
          17 17 17 17 17 17
          4 17 17 17 17 17
          17 17 17 17 17 17
          17 17 17 17 17 17
          17 17 17 17 17 17
          17 17 17 17 17 17
          17 17 17 17 17 17
          17 17 17 17 17 17
          17 17 17 17 17 17
          17 17 16 17 17 17
          17 17 17 17 17 17
          17 17 17 17 17 17
          17 17 17 17 17 17
          17 17 17 17 17 17
          17 17 17 17 17 17
          17 17 17 17 17 17
          17 17 17 17 17 17
          17 17 17 17 16 17
          17 17 17 17 17 17
          17 17 17 17 17 17
          17 17 17 17 17 17
          17 17 17 17 17 17
          17 17 17 17 17 17
          17 17 17 17 17 17
          17 17 17 17 17 17
          17 17 17 17 17 17
          5 17 17 17 17 17
          17 17 17 17 17 17
          17 17 17 17 17 17
          17 17 17 17 17 17
          17 17 17 17 17 17
          17 17 17 17 17 17
          17 17 17 17 17 17
          17 17 17 17 17 17
          17 17 16 17 17 17
          17 17 17 17 17 17
          17 17 17 17 17 17
          17 17 17 17 17 17
          17 17 17 17 17 17
          17 17 17 17 17 17
          17 17 17 17 17 17
          17 17 17 17 17 17
          17 17 17 17 16 17
          17 17 17 17 17 17
          17 17 17 17 17 17
          17 17 17 17 17 17
          17 17 17 17 17 17
          17 17 17 17 17 17
          17 17 17 17 17 17
          17 17 17 17 17 17
          17 17 17 17 17 17
          6 17 17 17 17 17
          17 17 17 17 17 17
          17 17 17 17 17 17
          17 17 17 17 17 17
          17 17 17 17 17 17
          17 17 17 17 17 17
          17 17 17 17 17 17
          17 17 17 17 17 17
          17 17 16 17 17 17
          17 17 17 17 17 17
          17 17 17 17 17 17
          17 17 17 17 17 17
          17 17 17 17 17 17
          17 17 17 17 17 17
          17 17 17 17 17 17
          17 17 17 17 17 17
          17 17 17 17 16 17
          17 17 17 17 17 17
          17 17 17 17 17 17
          17 17 17 17 17 17
          17 17 17 17 17 17
          17 17 17 17 17 17
          17 17 17 17 17 17
          17 17 17 17 17 17
          17 17 17 17 17 17
          7 17 17 17 17 17
          17 17 17 17 17 17
          17 17 17 17 17 17
          17 17 17 17 17 17
          17 17 17 17 17 17
          17 17 17 17 17 17
          17 17 17 17 17 17
          17 17 17 17 17 17
          17 17 16 17 17 17
          17 17 17 17 17 17
          17 17 17 17 17 17
          17 17 17 17 17 17
          17 17 17 17 17 17
          17 17 17 17 17 17
          17 17 17 17 17 17
          17 17 17 17 17 17
          17 17 17 17 16 17
          17 17 17 17 17 17
          17 17 17 17 17 17
          17 17 17 17 17 17
          17 17 17 17 17 17
          17 17 17 17 17 17
          17 17 17 17 17 17
          17 17 17 17 17 17
          17 17 17 17 17 17
          8 18 18 18 18 18
          18 18 18 18 18 18
          18 18 18 18 18 18
          18 18 18 18 18 18
          18 18 18 18 18 18
          18 18 18 18 18 18
          18 18 18 18 18 18
          18 18 18 18 18 18
          18 18 8 18 18 18
          18 18 18 18 18 18
          18 18 18 18 18 18
          18 18 18 18 18 18
          18 18 18 18 18 18
          18 18 18 18 18 18
          18 18 18 18 18 18
          18 18 18 18 18 18
          18 18 18 18 16 18
          18 18 18 18 18 18
          18 18 18 18 18 18
          18 18 18 18 18 18
          18 18 18 18 18 18
          18 18 18 18 18 18
          18 18 18 18 18 18
          18 18 18 18 18 18
          18 18 18 18 18 18
          16 18 18 18 18 18
          18 18 18 18 18 18
          18 18 18 18 18 18
          18 18 18 18 18 18
          18 18 18 18 18 18
          18 18 18 18 18 18
          18 18 18 18 18 18
          18 18 18 18 18 18
          18 18 9 18 18 18
          18 18 18 18 18 18
          18 18 18 18 18 18
          18 18 18 18 18 18
          18 18 18 18 18 18
          18 18 18 18 18 18
          18 18 18 18 18 18
          18 18 18 18 18 18
          18 18 18 18 16 18
          18 18 18 18 18 18
          18 18 18 18 18 18
          18 18 18 18 18 18
          18 18 18 18 18 18
          18 18 18 18 18 18
          18 18 18 18 18 18
          18 18 18 18 18 18
          18 18 18 18 18 18
          16 18 18 18 18 18
          18 18 18 18 18 18
          18 18 18 18 18 18
          18 18 18 18 18 18
          18 18 18 18 18 18
          18 18 18 18 18 18
          18 18 18 18 18 18
          18 18 18 18 18 18
          18 18 10 18 18 18
          18 18 18 18 18 18
          18 18 18 18 18 18
          18 18 18 18 18 18
          18 18 18 18 18 18
          18 18 18 18 18 18
          18 18 18 18 18 18
          18 18 18 18 18 18
          18 18 18 18 16 18
          18 18 18 18 18 18
          18 18 18 18 18 18
          18 18 18 18 18 18
          18 18 18 18 18 18
          18 18 18 18 18 18
          18 18 18 18 18 18
          18 18 18 18 18 18
          18 18 18 18 18 18
          16 18 18 18 18 18
          18 18 18 18 18 18
          18 18 18 18 18 18
          18 18 18 18 18 18
          18 18 18 18 18 18
          18 18 18 18 18 18
          18 18 18 18 18 18
          18 18 18 18 18 18
          18 18 11 18 18 18
          18 18 18 18 18 18
          18 18 18 18 18 18
          18 18 18 18 18 18
          18 18 18 18 18 18
          18 18 18 18 18 18
          18 18 18 18 18 18
          18 18 18 18 18 18
          18 18 18 18 16 18
          18 18 18 18 18 18
          18 18 18 18 18 18
          18 18 18 18 18 18
          18 18 18 18 18 18
          18 18 18 18 18 18
          18 18 18 18 18 18
          18 18 18 18 18 18
          18 18 18 18 18 18
          16 18 18 18 18 18
          18 18 18 18 18 18
          18 18 18 18 18 18
          18 18 18 18 18 18
          18 18 18 18 18 18
          18 18 18 18 18 18
          18 18 18 18 18 18
          18 18 18 18 18 18
          18 18 12 18 18 18
          18 18 18 18 18 18
          18 18 18 18 18 18
          18 18 18 18 18 18
          18 18 18 18 18 18
          18 18 18 18 18 18
          18 18 18 18 18 18
          18 18 18 18 18 18
          18 18 18 18 16 18
          18 18 18 18 18 18
          18 18 18 18 18 18
          18 18 18 18 18 18
          18 18 18 18 18 18
          18 18 18 18 18 18
          18 18 18 18 18 18
          18 18 18 18 18 18
          18 18 18 18 18 18
          16 18 18 18 18 18
          18 18 18 18 18 18
          18 18 18 18 18 18
          18 18 18 18 18 18
          18 18 18 18 18 18
          18 18 18 18 18 18
          18 18 18 18 18 18
          18 18 18 18 18 18
          18 18 13 18 18 18
          18 18 18 18 18 18
          18 18 18 18 18 18
          18 18 18 18 18 18
          18 18 18 18 18 18
          18 18 18 18 18 18
          18 18 18 18 18 18
          18 18 18 18 18 18
          18 18 18 18 16 18
          18 18 18 18 18 18
          18 18 18 18 18 18
          18 18 18 18 18 18
          18 18 18 18 18 18
          18 18 18 18 18 18
          18 18 18 18 18 18
          18 18 18 18 18 18
          18 18 18 18 18 18
          16 18 18 18 18 18
          18 18 18 18 18 18
          18 18 18 18 18 18
          18 18 18 18 18 18
          18 18 18 18 18 18
          18 18 18 18 18 18
          18 18 18 18 18 18
          18 18 18 18 18 18
          18 18 14 18 18 18
          18 18 18 18 18 18
          18 18 18 18 18 18
          18 18 18 18 18 18
          18 18 18 18 18 18
          18 18 18 18 18 18
          18 18 18 18 18 18
          18 18 18 18 18 18
          18 18 18 18 16 18
          18 18 18 18 18 18
          18 18 18 18 18 18
          18 18 18 18 18 18
          18 18 18 18 18 18
          18 18 18 18 18 18
          18 18 18 18 18 18
          18 18 18 18 18 18
          18 18 18 18 18 18
          16 18 18 18 18 18
          18 18 18 18 18 18
          18 18 18 18 18 18
          18 18 18 18 18 18
          18 18 18 18 18 18
          18 18 18 18 18 18
          18 18 18 18 18 18
          18 18 18 18 18 18
          18 18 15 18 18 18
          18 18 18 18 18 18
          18 18 18 18 18 18
          18 18 18 18 18 18
          18 18 18 18 18 18
          18 18 18 18 18 18
          18 18 18 18 18 18
          18 18 18 18 18 18
          18 18 18 18 16 18
          18 18 18 18 18 18
          18 18 18 18 18 18
          18 18 18 18 18 18
          18 18 18 18 18 18
          18 18 18 18 18 18
          18 18 18 18 18 18
          18 18 18 18 18 18
          18 18 18 18 18 18
          16 18 18 18 18 18
          18 18 18 18 18 18
          18 18 18 18 18 18
          18 18 18 18 18 18
          18 18 18 18 18 18
          18 18 18 18 18 18
          18 18 18 18 18 18
          18 18 18 18 18 18
          18 18 0 18 18 18
          18 18 18 18 18 18
          18 18 18 18 18 18
          18 18 18 18 18 18
          18 18 18 18 18 18
          18 18 18 18 18 18
          18 18 18 18 18 18
          18 18 18 18 18 18
          18 18 18 18
        </DataArray>
      </PointData>
      <CellData>
      </CellData>
      <Points>
        <DataArray type="Float32" Name="Points" NumberOfComponents="3" format="ascii" RangeMin="54.235535885" RangeMax="90.953970067">
          53.57213974 61.863025665 35.572929382 53.490821838 61.784973145 35.503154755
          53.409500122 61.706916809 35.433383942 53.32818222 61.628860474 35.363609314
          53.246864319 61.550807953 35.293834686 53.165546417 61.472755432 35.224063873
          53.084224701 61.394699097 35.154289246 53.002906799 61.316646576 35.084514618
          52.921588898 61.23859024 35.014743805 52.840267181 61.16053772 34.944969177
          52.75894928 61.082481384 34.87519455 52.677631378 61.004428864 34.805423737
          52.596313477 60.926372528 34.735649109 52.514995575 60.848320007 34.665874481
          52.433677673 60.770263672 34.596099854 52.352359772 60.692211151 34.526329041
          52.27104187 60.614154816 34.456554413 52.189723969 60.536102295 34.386779785
          52.108402252 60.458045959 34.317008972 52.027084351 60.379993439 34.247234344
          51.945766449 60.301937103 34.177459717 51.864448547 60.223884583 34.107688904
          51.783130646 60.145828247 34.037914276 51.701808929 60.067775726 33.968139648
          51.620491028 59.989719391 33.898368835 51.539173126 59.91166687 33.828594208
          51.457855225 59.833610535 33.75881958 51.376533508 59.755558014 33.689048767
          51.295215607 59.677501678 33.619274139 51.213897705 59.599449158 33.549499512
          51.132575989 59.521396637 33.479728699 51.051258087 59.443340302 33.409954071
          50.969940186 59.365287781 33.340179443 50.888622284 59.287231445 33.27040863
          50.807300568 59.209178925 33.200634003 50.725982666 59.131122589 33.130859375
          50.644664764 59.053070068 33.061088562 50.563346863 58.975013733 32.991313934
          50.482028961 58.896961212 32.921539307 50.40071106 58.818904877 32.851764679
          50.319393158 58.740852356 32.781993866 50.238071442 58.662796021 32.712219238
          50.15675354 58.5847435 32.642444611 50.075435638 58.506687164 32.572673798
          49.994117737 58.428634644 32.50289917 49.912796021 58.350578308 32.433124542
          49.831478119 58.272525787 32.363353729 49.750160217 58.194473267 32.293579102
          49.668842316 58.116416931 32.223804474 49.587520599 58.038360596 32.154033661
          54.258972168 61.549251556 35.645019531 54.18025589 61.475482941 35.57497406
          54.103805542 61.4008255 35.505458832 54.029682159 61.325271606 35.436466217
          53.957939148 61.248828888 35.368061066 53.888618469 61.171512604 35.300350189
          53.821735382 61.093334198 35.233501434 53.757282257 61.014354706 35.167800903
          53.695144653 60.934700012 35.10382843 53.635482788 60.854717255 35.042377472
          53.578670502 60.774646759 34.9830513 53.524532318 60.694232941 34.925956726
          53.472866058 60.61315155 34.871231079 53.423435211 60.530979156 34.819049835
          53.376014709 60.447166443 34.769626617 53.33008194 60.361110687 34.723167419
          53.284957886 60.272140503 34.67993927 53.240337372 60.180236816 34.641372681
          53.195903778 60.085575104 34.607952118 53.151512146 59.988140106 34.57932663
          53.106880188 59.887950897 34.55499649 53.061546326 59.7850914 34.534225464
          53.014888763 59.679714203 34.515930176 52.966087341 59.572048187 34.498664856
          52.914054871 59.462291718 34.480628967 52.857280731 59.350498199 34.45973587
          52.794166565 59.237178802 34.433036804 52.719051361 59.124355316 34.399993896
          52.628730774 59.013019562 34.356498718 52.522724152 58.901252747 34.296909332
          52.397323608 58.787952423 34.212371826 52.248271942 58.672733307 34.093105316
          52.093727112 58.555797577 33.952362061 51.940380096 58.437812805 33.794700623
          51.791542053 58.319244385 33.619365692 51.647594452 58.201213837 33.431221008
          51.504669189 58.083457947 33.240047455 51.359779358 57.965938568 33.051010132
          51.209568024 57.848251343 32.866989136 51.050369263 57.729804993 32.690044403
          50.878288269 57.609962463 32.521923065 50.689388275 57.488170624 32.364154816
          50.480556488 57.364635468 32.217750549 50.254924774 57.242809296 32.078712463
          50.027427673 57.127765656 31.927764893 49.812969208 57.016036987 31.750320435
          49.606399536 56.904880524 31.559049606 49.404937744 56.794612885 31.357749939
          49.208415985 56.685699463 31.147066116 49.017150879 56.578586578 30.927337646
          55.783443451 60.805713654 35.812606812 55.699619293 60.739154816 35.740608215
          55.621124268 60.669799805 35.669933319 55.54781723 60.59759903 35.600532532
          55.479492188 60.522529602 35.532470703 55.415836334 60.444595337 35.465934753
          55.356361389 60.363845825 35.401199341 55.300388336 60.280437469 35.338779449
          55.246871948 60.194774628 35.279777527 55.195209503 60.10786438 35.225551605
          55.145118713 60.020275116 35.174461365 55.094905853 59.931186676 35.126014709
          55.04258728 59.839611053 35.07964325 54.985904694 59.744380951 35.034606934
          54.922328949 59.644088745 34.989967346 54.84866333 59.537441254 34.944503784
          54.761405945 59.423290253 34.896785736 54.656925201 59.302383423 34.846511841
          54.532581329 59.176044464 34.790752411 54.397254944 59.044727325 34.729923248
          54.253810883 58.909725189 34.662708282 54.102828979 58.772399902 34.587287903
          53.944805145 58.633926392 34.502193451 53.780136108 58.495250702 34.406318665
          53.609558105 58.35729599 34.298366547 53.435249329 58.221492767 34.175636292
          53.258098602 58.0885849 34.037590027 53.076824188 57.962677002 33.890857697
          52.891910553 57.844738007 33.736923218 52.704277039 57.728923798 33.572242737
          52.514068604 57.611381531 33.394382477 52.321063995 57.489654541 33.202129364
          52.124908447 57.362659454 32.996097565 51.925479889 57.231040955 32.779716492
          51.723892212 57.094287872 32.555641174 51.518054962 56.951942444 32.33398056
          51.303440094 56.80116272 32.131065369 51.081638336 56.645332336 31.947814941
          50.851657867 56.486888885 31.782567978 50.611351013 56.327388763 31.633934021
          50.358524323 56.168403625 31.500284195 50.091556549 56.012008667 31.378818512
          49.810798645 55.861919403 31.263811111 49.524570465 55.72593689 31.140453339
          49.25843811 55.610958099 30.968482971 49.040050507 55.504714966 30.723985672
          48.847400665 55.398929596 30.450363159 48.669445038 55.29404068 30.161100388
          48.503269196 55.190731049 29.859611511 48.347831726 55.089614868 29.547529221
          57.341522217 59.929073334 36.002658844 57.22549057 59.864189148 35.925312042
          57.113040924 59.794723511 35.849189758 57.003036499 59.720489502 35.774040222
          56.894039154 59.641349792 35.699668884 56.784477234 59.557125092 35.62594986
          56.674472809 59.466873169 35.553211212 56.562866211 59.370281219 35.481666565
          56.447845459 59.267745972 35.411582947 56.328147888 59.160591125 35.342670441
          56.203197479 59.049346924 35.272190094 56.07182312 58.93314743 35.198745728
          55.933151245 58.811367035 35.121044159 55.786647797 58.683532715 35.037963867
          55.632148743 58.549160004 34.948642731 55.46957016 58.40827179 34.852546692
          55.299114227 58.261219025 34.749546051 55.121715546 58.1108284 34.639541626
          54.938861847 57.960292816 34.520866394 54.75112915 57.810523987 34.392902374
          54.558837891 57.662189484 34.255321503 54.362106323 57.515766144 34.108036041
          54.160774231 57.371383667 33.951217651 53.954528809 57.228935242 33.78521347
          53.74445343 57.088981628 33.608856201 53.535888672 56.954288483 33.416633606
          53.328826904 56.82459259 33.209163666 53.121620178 56.705493927 32.99533844
          52.91362381 56.597690582 32.778007507 52.703224182 56.491127014 32.552436829
          52.48840332 56.379364014 32.316287994 52.266963959 56.258487701 32.069454193
          52.036720276 56.12688446 31.814846039 51.795883179 55.985595703 31.559562683
          51.543270111 55.833328247 31.309684753 51.274539948 55.668052673 31.07998848
          50.985233307 55.484386444 30.892606735 50.683242798 55.289981842 30.742795944
          50.371105194 55.090732574 30.623210907 50.049045563 54.890708923 30.528064728
          49.717254639 54.69393158 30.451436996 49.376995087 54.505210876 30.385353088
          49.032409668 54.33171463 30.316732407 48.69644928 54.185134888 30.220205307
          48.40279007 54.073444366 30.038158417 48.188026428 53.975681305 29.742492676
          48.01354599 53.878059387 29.40590477 47.860443115 53.781024933 29.050725937
          47.723022461 53.685367584 28.682954788 47.598808289 53.591773987 28.305395126
          58.480705261 59.079544067 36.174629211 58.319789886 58.991828918 36.095741272
          58.160900116 58.896133423 36.017864227 58.002799988 58.791820526 35.940734863
          57.844142914 58.678413391 35.863948822 57.683498383 58.555675507 35.786842346
          57.519397736 58.423732758 35.708442688 57.350467682 58.283313751 35.627239227
          57.175708771 58.136333466 35.540718079 56.995391846 57.986110687 35.444942474
          56.808959961 57.834026337 35.338924408 56.616092682 57.680274963 35.222198486
          56.416881561 57.525203705 35.094394684 56.211589813 57.368923187 34.955528259
          56.000610352 57.211101532 34.805873871 55.784168243 57.051818848 34.646034241
          55.562587738 56.891330719 34.476734161 55.338287354 56.73323822 34.296417236
          55.113643646 56.580986023 34.103637695 54.888084412 56.433963776 33.90045166
          54.660991669 56.291530609 33.688533783 54.431606293 56.152984619 33.469364166
          54.198875427 56.017326355 33.244449615 53.961669922 55.883426666 33.015197754
          53.721424103 55.751644135 32.780220032 53.486541748 55.626205444 32.531105042
          53.255905151 55.505935669 32.269607544 53.027732849 55.398048401 32.005908966
          52.800460815 55.303264618 31.743915558 52.570022583 55.207836151 31.47808075
          52.332260132 55.103092194 31.206441879 52.083110809 54.983901978 30.930143356
          51.818767548 54.848342896 30.654138565 51.536308289 54.698085785 30.388130188
          51.232650757 54.531200409 30.140666962 50.901924133 54.344268799 29.929891586
          50.540157318 54.12984848 29.783138275 50.161621094 53.900062561 29.688964844
          49.772586823 53.664176941 29.633310318 49.375713348 53.42855072 29.604988098
          48.973392487 53.199237823 29.592969894 48.569217682 52.983142853 29.583892822
          48.170135498 52.78994751 29.5583992 47.792152405 52.634105682 29.484146118
          47.472629547 52.524265289 29.297742844 47.250549316 52.433517456 28.97681427
          47.075973511 52.343273163 28.611663818 46.924663544 52.253307343 28.229162216
          46.788726807 52.164161682 27.836791992 46.664386749 52.076370239 27.438043594
          59.540237427 58.137359619 36.358463287 59.32447052 58.011234283 36.280906677
          59.109451294 57.8751297 36.201885223 58.893661499 57.72870636 36.120758057
          58.675628662 57.571994781 36.036430359 58.453971863 57.405509949 35.947284698
          58.227516174 57.230369568 35.851249695 57.995517731 57.048564911 35.745376587
          57.758247375 56.863677979 35.624881744 57.51776886 56.680763245 35.483371735
          57.273235321 56.501373291 35.323684692 57.024833679 56.326023102 35.14755249
          56.773082733 56.155090332 34.956508636 56.518409729 55.9883461 34.75227356
          56.26115036 55.824798584 34.536506653 56.001220703 55.663841248 34.31098175
          55.738502502 55.505001068 34.077262878 55.47599411 55.351676941 33.832958221
          55.21604538 55.206748962 33.577270508 54.957233429 55.068588257 33.313732147
          54.698177338 54.935630798 33.04510498 54.437404633 54.806324005 32.773769379
          54.173206329 54.678928375 32.501979828 53.903888702 54.551719666 32.231731415
          53.630996704 54.424926758 31.96156311 53.364414215 54.303565979 31.681625366
          53.102275848 54.186107635 31.394620895 52.843090057 54.081501007 31.110761642
          52.58530426 53.991001129 30.834787369 52.323699951 53.898475647 30.56114769
          52.05266571 53.793704987 30.288528442 51.766635895 53.670574188 30.019268036
          51.460651398 53.526912689 29.759511948 51.131011963 53.365097046 29.519210815
          50.772602081 53.182655334 29.307271957 50.378372192 52.975196838 29.142765045
          49.943592072 52.734291077 29.056940079 49.487163544 52.476142883 29.030158997
          49.019077301 52.212638855 29.040531158 48.544765472 51.951503754 29.070913315
          48.069194794 51.699684143 29.105899811 47.598670959 51.464851379 29.129386902
          47.14345932 51.257629395 29.121009827 46.722934723 51.093437195 29.050344467
          46.371650696 50.981124878 28.865306854 46.115516663 50.893451691 28.554475784
          45.902778625 50.808353424 28.204204559 45.710243225 50.723789215 27.839166641
          45.530143738 50.639503479 27.46626091 45.358768463 50.555561066 27.088525772
          60.537670135 57.130119324 36.552192688 60.267150879 56.966064453 36.459667206
          59.996990204 56.792648315 36.361026764 59.725769043 56.61032486 36.255153656
          59.452289581 56.420082092 36.140361786 59.175609589 56.223480225 36.014492035
          58.895122528 56.022697449 35.875156403 58.61082077 55.820644379 35.719352722
          58.322845459 55.620895386 35.541805267 58.033164978 55.42791748 35.33700943
          57.740737915 55.242897034 35.11151123 57.446094513 55.065998077 34.869155884
          57.149593353 54.896682739 34.613445282 56.851345062 54.733722687 34.347400665
          56.551128387 54.575031281 34.073493958 56.248168945 54.419063568 33.794120789
          55.941570282 54.264457703 33.511318207 55.633529663 54.11333847 33.223651886
          55.32559967 53.967658997 32.931621552 55.017372131 53.826885223 32.637233734
          54.707820892 53.689834595 32.342567444 54.395324707 53.554870605 32.050052643
          54.078037262 53.420196533 31.76200676 53.7541008 53.284053802 31.480632782
          53.424636841 53.146469116 31.205259323 53.098510742 53.01202774 30.928277969
          52.773956299 52.879722595 30.653150558 52.453784943 52.762348175 30.388154984
          52.13722229 52.661262512 30.140043259 51.816566467 52.558036804 29.902879715
          51.484580994 52.441696167 29.674379349 51.13444519 52.305801392 29.45652771
          50.761001587 52.148361206 29.254682541 50.362453461 51.972961426 29.073635101
          49.934398651 51.77671051 28.918243408 49.470424652 51.554145813 28.804475784
          48.965507507 51.296253204 28.76533699 48.442359924 51.02154541 28.778083801
          47.912899017 50.74249649 28.819042206 47.382961273 50.466846466 28.868940353
          46.857654572 50.201648712 28.911745071 46.343482971 49.954948425 28.93227005
          45.851078033 49.738079071 28.913190842 45.399158478 49.566925049 28.832048416
          45.014137268 49.450237274 28.658821106 44.710205078 49.363796234 28.387756348
          44.443275452 49.282840729 28.082660675 44.194278717 49.202716827 27.762203217
          43.956409454 49.122009277 27.432231903 43.726158142 49.040168762 27.095584869
          61.461158752 56.073532104 36.754722595 61.144935608 55.879600525 36.607284546
          60.827747345 55.679141998 36.445743561 60.508144379 55.473609924 36.268993378
          60.184940338 55.264823914 36.076080322 59.857265472 55.054859161 35.866405487
          59.524593353 54.84589386 35.639938354 59.186935425 54.640201569 35.396800995
          58.845142365 54.440490723 35.136573792 58.501296997 54.249210358 34.858558655
          58.156108856 54.068012238 34.56772995 57.811080933 53.897045135 34.266559601
          57.465995789 53.734516144 33.958583832 57.120178223 53.57800293 33.646656036
          56.772140503 53.424003601 33.33347702 56.420345306 53.270225525 33.021289825
          56.063110352 53.114650726 32.712207794 55.700710297 52.957771301 32.406703949
          55.333267212 52.800712585 32.106739044 54.963275909 52.64591217 31.810348511
          54.590881348 52.493335724 31.517917633 54.214576721 52.341453552 31.231748581
          53.832717896 52.188644409 30.954137802 53.443649292 52.033275604 30.687454224
          53.047599792 51.874954224 30.432609558 52.64982605 51.716796875 30.186941147
          52.249382019 51.558883667 29.954435349 51.852176666 51.419071198 29.739620209
          51.456672668 51.297966003 29.553281784 51.057376862 51.17527771 29.389083862
          50.649658203 51.040348053 29.241611481 50.228652954 50.887176514 29.109846115
          49.790771484 50.714241028 28.99548912 49.33524704 50.526176453 28.89415741
          48.858230591 50.319190979 28.804124832 48.35433197 50.086250305 28.736976624
          47.818965912 49.817684174 28.72703743 47.271575928 49.532817841 28.754802704
          46.721698761 49.243610382 28.799739838 46.173473358 48.957370758 28.843294144
          45.630836487 48.681190491 28.870615005 45.099304199 48.423713684 28.868509293
          44.588279724 48.197360992 28.823562622 44.113658905 48.019104004 28.722490311
          43.692264557 47.898002625 28.560962677 43.330474854 47.813285828 28.337944031
          42.998104095 47.737480164 28.087600708 42.681774139 47.662910461 27.820987701
          42.376094818 47.586799622 27.542470932 42.077915192 47.507873535 27.25453186
          62.264137268 54.917167664 36.973133087 61.914852142 54.702606201 36.720539093
          61.562397003 54.487468719 36.45217514 61.2057724 54.273571014 36.169109344
          60.844291687 54.062606812 35.872776031 60.477581024 53.855987549 35.564975739